 Entering Gaussian System, Link 0=/ccc/products/gaussian-16-C.02/system/default/g16/g16
 Input=4meborinane_dimethylaniline_chelpg.gjf
 Output=4meborinane_dimethylaniline_chelpg.log
 Initial command:
 /ccc/products/gaussian-16-C.02/system/default/g16/l1.exe "/ccc/scratch/cont003/gen7343/penasfra/flp/b-n_flp/4meborinane_dimethylaniline/Reactant/Gau-1331967.inp" -scrdir="/ccc/scratch/cont003/gen7343/penasfra/flp/b-n_flp/4meborinane_dimethylaniline/Reactant/"
 Entering Link 1 = /ccc/products/gaussian-16-C.02/system/default/g16/l1.exe PID=   1332017.
  
 Copyright (c) 1988-2021, Gaussian, Inc.  All Rights Reserved.
  
 This is part of the Gaussian(R) 16 program.  It is based on
 the Gaussian(R) 09 system (copyright 2009, Gaussian, Inc.),
 the Gaussian(R) 03 system (copyright 2003, Gaussian, Inc.),
 the Gaussian(R) 98 system (copyright 1998, Gaussian, Inc.),
 the Gaussian(R) 94 system (copyright 1995, Gaussian, Inc.),
 the Gaussian 92(TM) system (copyright 1992, Gaussian, Inc.),
 the Gaussian 90(TM) system (copyright 1990, Gaussian, Inc.),
 the Gaussian 88(TM) system (copyright 1988, Gaussian, Inc.),
 the Gaussian 86(TM) system (copyright 1986, Carnegie Mellon
 University), and the Gaussian 82(TM) system (copyright 1983,
 Carnegie Mellon University). Gaussian is a federally registered
 trademark of Gaussian, Inc.
  
 This software contains proprietary and confidential information,
 including trade secrets, belonging to Gaussian, Inc.
  
 This software is provided under written license and may be
 used, copied, transmitted, or stored only in accord with that
 written license.
  
 The following legend is applicable only to US Government
 contracts under FAR:
  
                    RESTRICTED RIGHTS LEGEND
  
 Use, reproduction and disclosure by the US Government is
 subject to restrictions as set forth in subparagraphs (a)
 and (c) of the Commercial Computer Software - Restricted
 Rights clause in FAR 52.227-19.
  
 Gaussian, Inc.
 340 Quinnipiac St., Bldg. 40, Wallingford CT 06492
  
  
 ---------------------------------------------------------------
 Warning -- This program may not be used in any manner that
 competes with the business of Gaussian, Inc. or will provide
 assistance to any competitor of Gaussian, Inc.  The licensee
 of this program is prohibited from giving any competitor of
 Gaussian, Inc. access to this program.  By using this program,
 the user acknowledges that Gaussian, Inc. is engaged in the
 business of creating and licensing software in the field of
 computational chemistry and represents and warrants to the
 licensee that it is not a competitor of Gaussian, Inc. and that
 it will not use this program in any manner prohibited above.
 ---------------------------------------------------------------
  

 Cite this work as:
 Gaussian 16, Revision C.02,
 M. J. Frisch, G. W. Trucks, H. B. Schlegel, G. E. Scuseria, 
 M. A. Robb, J. R. Cheeseman, G. Scalmani, V. Barone, 
 G. A. Petersson, H. Nakatsuji, X. Li, M. Caricato, A. V. Marenich, 
 J. Bloino, B. G. Janesko, R. Gomperts, B. Mennucci, H. P. Hratchian, 
 J. V. Ortiz, A. F. Izmaylov, J. L. Sonnenberg, D. Williams-Young, 
 F. Ding, F. Lipparini, F. Egidi, J. Goings, B. Peng, A. Petrone, 
 T. Henderson, D. Ranasinghe, V. G. Zakrzewski, J. Gao, N. Rega, 
 G. Zheng, W. Liang, M. Hada, M. Ehara, K. Toyota, R. Fukuda, 
 J. Hasegawa, M. Ishida, T. Nakajima, Y. Honda, O. Kitao, H. Nakai, 
 T. Vreven, K. Throssell, J. A. Montgomery, Jr., J. E. Peralta, 
 F. Ogliaro, M. J. Bearpark, J. J. Heyd, E. N. Brothers, K. N. Kudin, 
 V. N. Staroverov, T. A. Keith, R. Kobayashi, J. Normand, 
 K. Raghavachari, A. P. Rendell, J. C. Burant, S. S. Iyengar, 
 J. Tomasi, M. Cossi, J. M. Millam, M. Klene, C. Adamo, R. Cammi, 
 J. W. Ochterski, R. L. Martin, K. Morokuma, O. Farkas, 
 J. B. Foresman, and D. J. Fox, Gaussian, Inc., Wallingford CT, 2019.
 
 ******************************************
 Gaussian 16:  AS64L-G16RevC.02  7-Dec-2021
                 9-Apr-2024 
 ******************************************
 %nprocshared=128
 Will use up to  128 processors via shared memory.
 %mem=30GB
 %chk=4meborinane_dimethylaniline_chelpg.chk
 ----------------------------------------------------------------------
 # wb97xd/genecp scrf=(solvent=toluene,pcm) nosymm pop=(chelpg) scfcyc=
 300
 ----------------------------------------------------------------------
 1/38=1,172=1/1;
 2/12=2,15=1,17=6,18=5,40=1/2;
 3/5=7,11=2,16=1,17=8,25=1,30=1,70=2201,72=13,74=-58/1,2,3;
 4//1;
 5/5=2,7=300,38=5,53=13/2;
 6/7=2,8=2,9=2,10=2,15=8,20=3,28=1/1,2;
 99/5=1,9=1/99;
 ----------------------------------
 4meborinane_dimethylaniline_chelpg
 ----------------------------------
 Symbolic Z-matrix:
 Charge =  0 Multiplicity = 1
 C                    -0.88085   0.96122   0.3479 
 C                     0.50969   0.92163   0.38818 
 C                     1.30905   2.04838   0.17858 
 C                     0.66212   3.28031  -0.09212 
 C                    -0.74058   3.32066  -0.09508 
 C                    -1.50081   2.1762    0.11312 
 H                    -1.46054   0.05907   0.5054 
 H                     0.98804  -0.03561   0.5711 
 H                    -1.25928   4.25498  -0.2605 
 H                    -2.58301   2.24853   0.09532 
 N                     1.39663   4.43256  -0.412 
 C                     2.63737   4.70647   0.27781 
 H                     3.29564   3.83498   0.30942 
 H                     3.18986   5.47489  -0.26705 
 H                     2.48469   5.05138   1.31079 
 C                     0.67156   5.63466  -0.76604 
 H                    -0.04056   5.42977  -1.56759 
 H                     0.1268    6.08083   0.08161 
 H                     1.38252   6.37471  -1.13689 
 B                     2.86853   1.8032    0.19884 
 C                     3.62567   1.53957   1.59292 
 C                     3.65094   1.60889  -1.18394 
 C                     5.12653   1.88185   1.47582 
 C                     3.02811   2.32016   2.77448 
 C                     3.47731   0.03705   1.94543 
 C                     5.16014   1.8948   -1.04456 
 C                     3.43391   0.12359  -1.57476 
 C                     3.093     2.45341  -2.3398 
 C                     5.7978    1.3268    0.22148 
 H                     5.64624   1.5265    2.37548 
 H                     5.24141   2.97512   1.47241 
 H                     3.16473   3.39846   2.6634 
 H                     1.95701   2.12838   2.88104 
 H                     3.5209    2.02434   3.70863 
 H                     4.04766  -0.16749   2.85925 
 H                     2.43668  -0.22593   2.14897 
 H                     3.85011  -0.63501   1.17114 
 H                     5.68179   1.52011  -1.93529 
 H                     5.30805   2.98379  -1.04258 
 H                     2.36992  -0.12368  -1.63939 
 H                     3.87398  -0.05024  -2.56362 
 H                     3.90189  -0.57749  -0.88167 
 H                     3.21403   3.52377  -2.15843 
 H                     3.62137   2.20771  -3.26938 
 H                     2.02721   2.2657   -2.49538 
 H                     6.86324   1.57767   0.23597 
 H                     5.74582   0.23224   0.21716 
 
                          Input orientation:                          
 ---------------------------------------------------------------------
 Center     Atomic      Atomic             Coordinates (Angstroms)
 Number     Number       Type             X           Y           Z
 ---------------------------------------------------------------------
      1          6           0       -0.880845    0.961215    0.347897
      2          6           0        0.509688    0.921633    0.388180
      3          6           0        1.309053    2.048375    0.178579
      4          6           0        0.662123    3.280313   -0.092116
      5          6           0       -0.740579    3.320659   -0.095080
      6          6           0       -1.500808    2.176203    0.113123
      7          1           0       -1.460543    0.059071    0.505398
      8          1           0        0.988041   -0.035612    0.571097
      9          1           0       -1.259283    4.254983   -0.260496
     10          1           0       -2.583008    2.248533    0.095317
     11          7           0        1.396633    4.432563   -0.411998
     12          6           0        2.637365    4.706465    0.277814
     13          1           0        3.295642    3.834981    0.309420
     14          1           0        3.189856    5.474886   -0.267052
     15          1           0        2.484689    5.051384    1.310790
     16          6           0        0.671559    5.634661   -0.766037
     17          1           0       -0.040555    5.429769   -1.567591
     18          1           0        0.126800    6.080828    0.081610
     19          1           0        1.382522    6.374714   -1.136895
     20          5           0        2.868531    1.803203    0.198839
     21          6           0        3.625670    1.539572    1.592923
     22          6           0        3.650943    1.608890   -1.183942
     23          6           0        5.126531    1.881853    1.475818
     24          6           0        3.028107    2.320163    2.774478
     25          6           0        3.477311    0.037047    1.945429
     26          6           0        5.160145    1.894803   -1.044565
     27          6           0        3.433913    0.123589   -1.574757
     28          6           0        3.092998    2.453414   -2.339799
     29          6           0        5.797795    1.326796    0.221476
     30          1           0        5.646239    1.526499    2.375480
     31          1           0        5.241413    2.975117    1.472409
     32          1           0        3.164725    3.398458    2.663400
     33          1           0        1.957007    2.128384    2.881041
     34          1           0        3.520900    2.024337    3.708629
     35          1           0        4.047656   -0.167491    2.859254
     36          1           0        2.436679   -0.225925    2.148973
     37          1           0        3.850108   -0.635014    1.171136
     38          1           0        5.681794    1.520113   -1.935285
     39          1           0        5.308049    2.983793   -1.042579
     40          1           0        2.369923   -0.123679   -1.639388
     41          1           0        3.873981   -0.050238   -2.563616
     42          1           0        3.901886   -0.577494   -0.881667
     43          1           0        3.214030    3.523773   -2.158429
     44          1           0        3.621372    2.207713   -3.269376
     45          1           0        2.027213    2.265695   -2.495378
     46          1           0        6.863237    1.577674    0.235971
     47          1           0        5.745821    0.232237    0.217156
 ---------------------------------------------------------------------
                    Distance matrix (angstroms):
                    1          2          3          4          5
     1  C    0.000000
     2  C    1.391679   0.000000
     3  C    2.450763   1.397306   0.000000
     4  C    2.820031   2.411906   1.417556   0.000000
     5  C    2.404762   2.748096   2.427877   1.403285   0.000000
     6  C    1.384077   2.385728   2.813529   2.437099   1.389632
     7  H    1.083845   2.153965   3.425610   3.903733   3.393653
     8  H    2.129840   1.085633   2.144789   3.397268   3.833598
     9  H    3.370796   3.829003   3.414419   2.161049   1.081378
    10  H    2.149033   3.378047   3.898094   3.410363   2.140152
    11  N    4.220735   3.708583   2.457805   1.403392   2.429906
    12  C    5.139028   4.343287   2.973164   2.464212   3.670152
    13  H    5.069818   4.031791   2.674998   2.721086   4.088915
    14  H    6.109173   5.323978   3.934080   3.352042   4.485375
    15  H    5.383629   4.669762   3.417906   2.902858   3.920999
    16  C    5.048951   4.855003   3.762997   2.448921   2.792655
    17  H    4.933878   4.944805   4.037868   2.700175   2.665833
    18  H    5.224624   5.182459   4.203308   2.856508   2.898637
    19  H    6.052554   5.729205   4.522508   3.344526   3.862666
    20  B    3.845645   2.525303   1.578763   2.671094   3.926160
    21  C    4.710973   3.397440   2.761515   3.827812   5.008568
    22  C    4.827330   3.579298   2.744824   3.594271   4.837483
    23  C    6.181290   4.839444   4.035306   4.934070   6.241864
    24  C    4.797389   3.740687   3.125333   3.838897   4.841317
    25  C    4.732834   3.466165   3.445075   4.753488   5.721572
    26  C    6.269298   4.962516   4.043584   4.801979   6.144358
    27  C    4.797432   3.611245   3.360657   4.454879   5.462333
    28  C    5.024121   4.057304   3.112675   3.412476   4.526278
    29  C    6.689833   5.306225   4.546572   5.503607   6.842955
    30  H    6.858095   5.540702   4.889776   5.831493   7.079133
    31  H    6.542352   5.270823   4.242205   4.848792   6.193597
    32  H    5.260071   4.284917   3.382392   3.724224   4.781910
    33  H    3.979008   3.124954   2.780206   3.441414   4.189963
    34  H    5.639158   4.616139   4.165825   4.918917   5.857376
    35  H    5.645442   4.450799   4.426740   5.662135   6.619855
    36  H    3.957163   2.851416   3.213477   4.523852   5.263934
    37  H    5.060394   3.767569   3.826579   5.204694   6.190724
    38  H    6.970905   5.701522   4.885524   5.629625   6.919190
    39  H    6.657827   5.415149   4.284647   4.751414   6.131650
    40  H    3.961539   2.943499   3.024610   4.110693   4.891173
    41  H    5.666420   4.579967   4.301472   5.245657   6.225012
    42  H    5.172424   3.920064   3.839543   5.099228   6.112839
    43  H    5.442093   4.535396   3.356686   3.292590   4.465154
    44  H    5.908331   4.971347   4.154588   4.472427   5.508305
    45  H    4.271145   3.524811   2.777234   2.944247   3.812486
    46  H    7.769386   6.389143   5.574389   6.438978   7.808048
    47  H    6.667924   5.284090   4.794242   5.935520   7.190913
                    6          7          8          9         10
     6  C    0.000000
     7  H    2.153543   0.000000
     8  H    3.360987   2.451295   0.000000
     9  H    2.125853   4.269986   4.914389   0.000000
    10  H    1.084761   2.494361   4.265686   2.429957   0.000000
    11  N    3.709727   5.304008   4.593257   2.666154   4.567811
    12  C    4.853228   6.200235   5.029272   3.959480   5.772957
    13  H    5.078977   6.075953   4.513866   4.609615   6.092716
    14  H    5.747014   7.180107   5.993002   4.613355   6.623188
    15  H    5.058187   6.413790   5.353936   4.137695   5.917339
    16  C    4.177683   6.103246   5.834388   2.426362   4.774935
    17  H    3.942440   5.929422   5.958388   2.138672   4.398817
    18  H    4.230390   6.241860   6.196142   2.317752   4.693584
    19  H    5.244390   7.118110   6.645685   3.498638   5.853985
    20  B    4.386069   4.677270   2.656324   4.822972   5.470678
    21  C    5.373629   5.407787   3.237657   5.888241   6.425973
    22  C    5.342730   5.602062   3.588258   5.653749   6.395920
    23  C    6.772385   6.903173   4.649978   7.030302   7.840742
    24  C    5.254960   5.514457   3.816600   5.597884   6.218331
    25  C    5.719703   5.143596   2.844386   6.715088   6.711263
    26  C    6.766663   7.043139   4.872712   6.884350   7.834595
    27  C    5.604787   5.318544   3.257656   6.389193   6.596050
    28  C    5.215048   5.879010   4.370287   5.148932   6.179710
    29  C    7.348662   7.373684   5.011200   7.655647   8.432282
    30  H    7.524670   7.493791   5.234004   7.879037   8.569771
    31  H    6.924122   7.372561   5.288480   6.848362   7.977836
    32  H    5.455733   6.099310   4.572584   5.371652   6.399517
    33  H    4.429463   4.648159   3.310229   4.973550   5.327892
    34  H    6.178048   6.240011   4.528010   6.601506   7.096758
    35  H    6.619637   5.994349   3.822865   7.579889   7.579065
    36  H    5.041697   4.239210   2.150457   6.288419   5.961351
    37  H    6.136337   5.397034   2.985089   7.215783   7.131424
    38  H    7.497746   7.687949   5.543785   7.646109   8.541715
    39  H    6.953300   7.534193   5.512098   6.734792   8.006510
    40  H    4.831492   4.393856   2.608371   5.851936   5.759177
    41  H    6.403931   6.155318   4.260902   7.084468   7.351665
    42  H    6.145043   5.575375   3.300705   7.097630   7.141063
    43  H    5.404220   6.399357   5.007451   4.913995   6.349115
    44  H    6.138324   6.685166   5.168769   6.088141   7.058127
    45  H    4.388533   5.102773   3.972299   4.444437   5.288302
    46  H    8.386333   8.465463   6.101879   8.566784   9.471081
    47  H    7.503563   7.214205   4.778440   8.092102   8.570279
                   11         12         13         14         15
    11  N    0.000000
    12  C    1.445780   0.000000
    13  H    2.117495   1.092617   0.000000
    14  H    2.079205   1.092060   1.741493   0.000000
    15  H    2.129508   1.099690   1.772011   1.779382   0.000000
    16  C    1.447797   2.411548   3.358760   2.572224   2.817954
    17  H    2.096503   3.331658   4.146894   3.482670   3.847741
    18  H    2.138435   2.868851   3.890666   3.141822   2.851364
    19  H    2.073071   2.521723   3.493150   2.198357   2.992848
    20  B    3.074596   2.913521   2.079128   3.715045   3.454627
    21  C    4.166259   3.568679   2.650510   4.374487   3.703277
    22  C    3.694718   3.571980   2.704043   3.999902   4.408469
    23  C    4.897153   3.950898   2.920162   4.438265   4.129466
    24  C    4.156630   3.475694   2.905643   4.385128   3.145990
    25  C    5.404373   5.028908   4.139303   5.877737   5.150887
    26  C    4.583055   4.002318   3.012298   4.159755   4.761278
    27  C    4.906096   5.006921   4.164573   5.514167   5.788832
    28  C    3.242083   3.483639   2.994688   3.665372   4.521757
    29  C    5.423772   4.627489   3.543938   4.924089   5.102532
    30  H    5.854434   4.854453   3.888830   5.348509   4.853223
    31  H    4.522994   3.347490   2.424445   3.671983   3.454929
    32  H    3.695077   2.771283   2.397689   3.591620   2.241465
    33  H    4.058000   3.726416   3.364172   4.757045   3.359772
    34  H    5.224139   4.443527   3.857952   5.274649   3.998297
    35  H    6.236145   5.692820   4.804889   6.507383   5.663679
    36  H    5.416805   5.279203   4.540124   6.237283   5.343673
    37  H    5.848606   5.549790   4.585940   6.311513   5.849700
    38  H    5.400497   4.931450   4.011363   4.963163   5.764404
    39  H    4.218500   3.441452   2.569475   3.360614   4.217184
    40  H    4.818000   5.203603   4.508414   5.822330   5.958020
    41  H    5.555377   5.677074   4.866594   6.022394   6.554975
    42  H    5.621170   5.555505   4.610440   6.125034   6.204803
    43  H    2.679338   2.768859   2.488733   2.717487   3.860183
    44  H    4.250180   4.449111   3.944855   4.458091   5.509667
    45  H    3.071387   3.744361   3.455208   4.076283   4.738804
    46  H    6.201130   5.258239   4.222388   5.379128   5.691536
    47  H    6.078981   5.448385   4.357941   5.852588   5.920743
                   16         17         18         19         20
    16  C    0.000000
    17  H    1.091593   0.000000
    18  H    1.101968   1.780941   0.000000
    19  H    1.091184   1.761695   1.774249   0.000000
    20  B    4.520812   4.973433   5.082215   4.989100   0.000000
    21  C    5.573259   6.209967   5.928673   5.988507   1.608176
    22  C    5.025754   5.326674   5.832618   5.278354   1.600628
    23  C    6.241495   6.967699   6.676265   6.405441   2.595270
    24  C    5.392074   6.159537   5.460011   5.869086   2.631849
    25  C    6.823311   7.334722   7.157306   7.352203   2.557439
    26  C    5.849061   6.310057   6.642713   5.860765   2.608819
    27  C    6.217439   6.342517   7.012078   6.593671   2.507270
    28  C    4.296560   4.390233   5.274437   4.444018   2.630179
    29  C    6.768396   7.356730   7.401390   6.842608   2.967838
    30  H    7.175902   7.944995   7.514517   7.349915   3.539773
    31  H    5.741723   6.570092   6.143210   5.766868   2.936994
    32  H    4.793487   5.683426   4.805178   5.145541   2.950700
    33  H    5.219917   5.888949   5.177672   5.874109   2.851460
    34  H    6.416839   7.219379   6.413291   6.854017   3.576746
    35  H    7.629268   8.224339   7.882253   8.116193   3.514510
    36  H    6.779336   7.206692   7.027422   7.448262   2.847258
    37  H    7.291408   7.708403   7.755812   7.781534   2.802456
    38  H    6.587799   6.940165   7.464981   6.533630   3.542467
    39  H    5.347954   5.904744   6.140095   5.188160   2.980966
    40  H    6.066767   6.054448   6.818309   6.592160   2.709347
    41  H    6.767930   6.807800   7.656929   7.037252   3.475245
    42  H    7.002803   7.218070   7.714430   7.399022   2.811234
    43  H    3.585912   3.817621   4.592090   3.539183   2.938783
    44  H    5.168373   5.165987   6.200174   5.188817   3.571962
    45  H    4.022232   3.892020   4.980731   4.375516   2.860161
    46  H    7.469942   8.108873   8.104431   7.411787   4.001240
    47  H    7.476696   7.980088   8.111583   7.655185   3.278272
                   21         22         23         24         25
    21  C    0.000000
    22  C    2.777845   0.000000
    23  C    1.543844   3.053881   0.000000
    24  C    1.537035   4.069757   2.506395   0.000000
    25  C    1.550436   3.506252   2.518684   2.470167   0.000000
    26  C    3.071994   1.542356   2.520640   4.394497   3.901699
    27  C    3.475050   1.551115   3.906719   4.889321   3.521517
    28  C    4.072487   1.536401   4.361292   5.116424   4.934542
    29  C    2.577648   2.581424   1.527108   3.895609   3.165456
    30  H    2.166856   4.081358   1.098073   2.764727   2.666019
    31  H    2.164703   3.384135   1.099289   2.650108   3.459488
    32  H    2.194048   4.270949   2.749386   1.092576   3.451417
    33  H    2.188695   4.434341   3.475818   1.093339   2.749615
    34  H    2.173059   4.911900   2.753870   1.096812   2.657084
    35  H    2.166963   4.433999   2.697717   2.689812   1.096451
    36  H    2.199971   3.993658   3.482983   2.687677   1.092474
    37  H    2.226455   3.259013   2.838434   3.461136   1.090951
    38  H    4.083660   2.167199   3.474881   5.464797   4.703102
    39  H    3.444132   2.157856   2.754913   4.495383   4.578548
    40  H    3.845925   2.202326   4.617960   5.088004   3.755403
    41  H    4.457126   2.169321   4.649611   5.901657   4.527301
    42  H    3.268311   2.221400   3.620204   4.746294   2.924106
    43  H    4.263701   2.192554   4.422817   5.081025   5.391496
    44  H    4.907992   2.169907   4.988843   6.073943   5.650375
    45  H    4.449329   2.188094   5.052079   5.364339   5.175947
    46  H    3.510642   3.512259   2.155433   4.658705   4.093931
    47  H    2.845505   2.871718   2.165406   4.276131   2.858525
                   26         27         28         29         30
    26  C    0.000000
    27  C    2.529462   0.000000
    28  C    2.502554   2.475802   0.000000
    29  C    1.527118   3.203451   3.891699   0.000000
    30  H    3.473995   4.739928   5.441697   2.168544   0.000000
    31  H    2.740226   4.547910   4.406903   2.142745   1.754399
    32  H    4.471206   5.362761   5.092176   4.145821   3.121705
    33  H    5.071985   5.104370   5.352877   4.739988   3.772041
    34  H    5.029588   5.615566   6.078708   4.222683   2.557771
    35  H    4.553075   4.485740   5.900057   3.500536   2.378888
    36  H    4.702493   3.870762   5.268651   4.174121   3.663819
    37  H    3.609086   2.878997   4.736905   2.923019   3.057559
    38  H    1.098131   2.670810   2.781465   2.168512   4.310916
    39  H    1.098990   3.460689   2.621170   2.140870   3.731113
    40  H    3.494771   1.094255   2.766735   4.161370   5.438428
    41  H    2.782969   1.096229   2.632167   3.654315   5.479203
    42  H    2.778849   1.091279   3.459314   2.904775   4.251889
    43  H    2.771570   3.456917   1.092343   4.143247   5.519155
    44  H    2.723145   2.692665   1.097115   4.207004   6.035606
    45  H    3.472417   2.723044   1.093316   4.741320   6.113020
    46  H    2.154267   4.141662   4.649324   1.094676   2.461951
    47  H    2.167737   2.927059   4.302222   1.095801   2.518609
                   31         32         33         34         35
    31  H    0.000000
    32  H    2.431113   0.000000
    33  H    3.672673   1.766080   0.000000
    34  H    2.977386   1.762831   1.772425   0.000000
    35  H    3.636534   3.678847   3.105210   2.408946   0.000000
    36  H    4.309402   3.732404   2.511728   2.944782   1.761579
    37  H    3.880662   4.354940   3.760848   3.690447   1.762766
    38  H    3.731401   5.568817   6.118907   6.064443   5.339103
    39  H    2.515886   4.301170   5.230296   5.166085   5.171410
    40  H    5.247025   5.617040   5.067205   5.877075   4.801509
    41  H    5.226102   6.302241   6.169722   6.615859   5.426917
    42  H    4.467332   5.377648   5.026162   5.290132   3.766144
    43  H    4.194555   4.823709   5.378055   6.063402   6.284704
    44  H    5.069316   6.068297   6.372129   6.981137   6.586609
    45  H    5.155356   5.402784   5.378630   6.385848   6.218896
    46  H    2.472234   4.784000   5.600961   4.840463   4.225484
    47  H    3.058346   4.761420   5.004675   4.511350   3.166106
                   36         37         38         39         40
    36  H    0.000000
    37  H    1.766720   0.000000
    38  H    5.500962   4.201130   0.000000
    39  H    5.360323   4.485743   1.754699   0.000000
    40  H    3.790328   3.217368   3.709191   4.318003   0.000000
    41  H    4.930030   3.780331   2.475680   3.684488   1.766856
    42  H    3.384555   2.054261   2.945868   3.832225   1.768332
    43  H    5.763525   5.365269   3.186582   2.433437   3.779660
    44  H    6.056781   5.277458   2.549104   2.899277   3.107792
    45  H    5.286381   5.018006   3.771679   3.659259   2.561109
    46  H    5.148491   3.853501   2.472544   2.455702   5.157659
    47  H    3.859048   2.292581   2.509129   3.057718   3.869124
                   41         42         43         44         45
    41  H    0.000000
    42  H    1.762875   0.000000
    43  H    3.656948   4.350133   0.000000
    44  H    2.379128   3.679296   1.769787   0.000000
    45  H    2.962896   3.768579   1.762053   1.773070   0.000000
    46  H    4.407203   3.829290   4.778825   4.816025   5.596496
    47  H    3.363966   2.294161   4.784096   4.535603   5.031981
                   46         47
    46  H    0.000000
    47  H    1.749049   0.000000
 Symmetry turned off by external request.
 Stoichiometry    C17H28BN
 Framework group  C1[X(C17H28BN)]
 Deg. of freedom   135
 Full point group                 C1      NOp   1
 Rotational constants (GHZ):           0.5406566           0.3136771           0.2850760
 General basis read from cards:  (5D, 7F)
 ======================================================================================================
                                       Pseudopotential Parameters
 ======================================================================================================
  Center     Atomic      Valence      Angular      Power
  Number     Number     Electrons     Momentum     of R      Exponent        Coefficient   SO-Coeffient
 ======================================================================================================
    1          6
                                   No pseudopotential on this center.
    2          6
                                   No pseudopotential on this center.
    3          6
                                   No pseudopotential on this center.
    4          6
                                   No pseudopotential on this center.
    5          6
                                   No pseudopotential on this center.
    6          6
                                   No pseudopotential on this center.
    7          1
                                   No pseudopotential on this center.
    8          1
                                   No pseudopotential on this center.
    9          1
                                   No pseudopotential on this center.
   10          1
                                   No pseudopotential on this center.
   11          7
                                   No pseudopotential on this center.
   12          6
                                   No pseudopotential on this center.
   13          1
                                   No pseudopotential on this center.
   14          1
                                   No pseudopotential on this center.
   15          1
                                   No pseudopotential on this center.
   16          6
                                   No pseudopotential on this center.
   17          1
                                   No pseudopotential on this center.
   18          1
                                   No pseudopotential on this center.
   19          1
                                   No pseudopotential on this center.
   20          5
                                   No pseudopotential on this center.
   21          6
                                   No pseudopotential on this center.
   22          6
                                   No pseudopotential on this center.
   23          6
                                   No pseudopotential on this center.
   24          6
                                   No pseudopotential on this center.
   25          6
                                   No pseudopotential on this center.
   26          6
                                   No pseudopotential on this center.
   27          6
                                   No pseudopotential on this center.
   28          6
                                   No pseudopotential on this center.
   29          6
                                   No pseudopotential on this center.
   30          1
                                   No pseudopotential on this center.
   31          1
                                   No pseudopotential on this center.
   32          1
                                   No pseudopotential on this center.
   33          1
                                   No pseudopotential on this center.
   34          1
                                   No pseudopotential on this center.
   35          1
                                   No pseudopotential on this center.
   36          1
                                   No pseudopotential on this center.
   37          1
                                   No pseudopotential on this center.
   38          1
                                   No pseudopotential on this center.
   39          1
                                   No pseudopotential on this center.
   40          1
                                   No pseudopotential on this center.
   41          1
                                   No pseudopotential on this center.
   42          1
                                   No pseudopotential on this center.
   43          1
                                   No pseudopotential on this center.
   44          1
                                   No pseudopotential on this center.
   45          1
                                   No pseudopotential on this center.
   46          1
                                   No pseudopotential on this center.
   47          1
                                   No pseudopotential on this center.
 ======================================================================================================
   614 basis functions,   936 primitive gaussians,   633 cartesian basis functions
    71 alpha electrons       71 beta electrons
       nuclear repulsion energy      1554.8653642346 Hartrees.
 NAtoms=   47 NActive=   47 NUniq=   47 SFac= 1.00D+00 NAtFMM=   60 NAOKFM=F Big=F
 Integral buffers will be    131072 words long.
 Raffenetti 2 integral format.
 Two-electron integral symmetry is turned off.
 Nuclear repulsion after empirical dispersion term =     1554.8131261510 Hartrees.
 ------------------------------------------------------------------------------
 Polarizable Continuum Model (PCM)
 =================================
 Model                : PCM.
 Atomic radii         : UFF (Universal Force Field).
 Polarization charges : Total charges.
 Charge compensation  : None.
 Solution method      : On-the-fly selection.
 Cavity type          : Scaled VdW (van der Waals Surface) (Alpha=1.100).
 Cavity algorithm     : GePol (No added spheres)
                        Default sphere list used, NSphG=   47.
                        Lebedev-Laikov grids with approx.  5.0 points / Ang**2.
                        Smoothing algorithm: York/Karplus (Gamma=1.0000).
                        Polarization charges: spherical gaussians, with
                                              point-specific exponents (IZeta= 3).
                        Self-potential: point-specific (ISelfS= 7).
                        Self-field    : sphere-specific E.n sum rule (ISelfD= 2).
 Solvent              : Toluene, Eps=   2.374100 Eps(inf)=   2.238315
 ------------------------------------------------------------------------------
 One-electron integrals computed using PRISM.
   1 Symmetry operations used in ECPInt.
 ECPInt:  NShTT=   32385 NPrTT=   98772 LenC2=   30733 LenP2D=   68338.
 LDataN:  DoStor=T MaxTD1= 4 Len=   56
 Number of processors reduced to  70 by ecpmxn.
 NBasis=   614 RedAO= T EigKep=  1.78D-06  NBF=   614
 NBsUse=   610 1.00D-06 EigRej=  8.47D-07 NBFU=   610
 ExpMin= 3.15D-02 ExpMax= 6.29D+03 ExpMxC= 9.49D+02 IAcc=3 IRadAn=         5 AccDes= 0.00D+00
 Harris functional with IExCor= 4639 and IRadAn=       5 diagonalized for initial guess.
 HarFok:  IExCor= 4639 AccDes= 0.00D+00 IRadAn=         5 IDoV= 1 UseB2=F ITyADJ=14
 ICtDFT=  3500011 ScaDFX=  1.000000  1.000000  1.000000  1.000000
 FoFCou: FMM=F IPFlag=           0 FMFlag=      100000 FMFlg1=           0
         NFxFlg=           0 DoJE=T BraDBF=F KetDBF=T FulRan=T
         wScrn=  0.000000 ICntrl=       500 IOpCl=  0 I1Cent=   200000004 NGrid=           0
         NMat0=    1 NMatS0=      1 NMatT0=    0 NMatD0=    1 NMtDS0=    0 NMtDT0=    0
 Symmetry not used in FoFCou.
 Requested convergence on RMS density matrix=1.00D-08 within 300 cycles.
 Requested convergence on MAX density matrix=1.00D-06.
 Requested convergence on             energy=1.00D-06.
 No special actions if energy rises.
 Inv3:  Mode=1 IEnd=    21051603.
 Iteration    1 A*A^-1 deviation from unit magnitude is 5.11D-15 for   2634.
 Iteration    1 A*A^-1 deviation from orthogonality  is 4.39D-15 for   2634   1623.
 Iteration    1 A^-1*A deviation from unit magnitude is 5.11D-15 for   2634.
 Iteration    1 A^-1*A deviation from orthogonality  is 2.09D-15 for   2639   2178.
 Error on total polarization charges =  0.01130
 SCF Done:  E(RwB97XD) =  -744.253760281     A.U. after   15 cycles
            NFock= 15  Conv=0.84D-08     -V/T= 2.0049

 **********************************************************************

            Population analysis using the SCF Density.

 **********************************************************************

 Alpha  occ. eigenvalues --  -14.44595 -10.32612 -10.31717 -10.30792 -10.28313
 Alpha  occ. eigenvalues --  -10.28140 -10.27662 -10.27364 -10.27241 -10.27164
 Alpha  occ. eigenvalues --  -10.27137 -10.27043 -10.27033 -10.27000 -10.26960
 Alpha  occ. eigenvalues --  -10.26717 -10.26184 -10.25800  -6.84531  -1.05097
 Alpha  occ. eigenvalues --   -0.94602  -0.92780  -0.89125  -0.85434  -0.84554
 Alpha  occ. eigenvalues --   -0.83777  -0.81856  -0.77968  -0.77271  -0.76434
 Alpha  occ. eigenvalues --   -0.75486  -0.70690  -0.69339  -0.67215  -0.65022
 Alpha  occ. eigenvalues --   -0.63181  -0.61846  -0.57425  -0.56855  -0.56216
 Alpha  occ. eigenvalues --   -0.55899  -0.54734  -0.53343  -0.53093  -0.51938
 Alpha  occ. eigenvalues --   -0.51361  -0.50546  -0.49996  -0.49922  -0.48849
 Alpha  occ. eigenvalues --   -0.48381  -0.47357  -0.46861  -0.46612  -0.45944
 Alpha  occ. eigenvalues --   -0.45532  -0.45126  -0.44102  -0.43693  -0.43373
 Alpha  occ. eigenvalues --   -0.42191  -0.42000  -0.40244  -0.39931  -0.39626
 Alpha  occ. eigenvalues --   -0.39112  -0.36567  -0.35379  -0.35009  -0.31534
 Alpha  occ. eigenvalues --   -0.26838
 Alpha virt. eigenvalues --    0.03789   0.04101   0.04612   0.04877   0.04987
 Alpha virt. eigenvalues --    0.05933   0.06090   0.06328   0.06471   0.06657
 Alpha virt. eigenvalues --    0.07263   0.07424   0.07741   0.08107   0.08576
 Alpha virt. eigenvalues --    0.08748   0.09080   0.09490   0.09880   0.10201
 Alpha virt. eigenvalues --    0.10678   0.11006   0.11438   0.11725   0.12246
 Alpha virt. eigenvalues --    0.12539   0.13056   0.13465   0.13801   0.13989
 Alpha virt. eigenvalues --    0.14373   0.14809   0.15174   0.15429   0.15608
 Alpha virt. eigenvalues --    0.16008   0.16652   0.16967   0.17329   0.17513
 Alpha virt. eigenvalues --    0.17661   0.17962   0.18012   0.18330   0.18633
 Alpha virt. eigenvalues --    0.18757   0.19049   0.19251   0.19348   0.19443
 Alpha virt. eigenvalues --    0.19733   0.19866   0.20118   0.20475   0.20741
 Alpha virt. eigenvalues --    0.20852   0.21077   0.21277   0.21541   0.21648
 Alpha virt. eigenvalues --    0.21807   0.21907   0.22174   0.22514   0.23196
 Alpha virt. eigenvalues --    0.23543   0.23908   0.24048   0.24463   0.24577
 Alpha virt. eigenvalues --    0.24967   0.25162   0.25334   0.25585   0.25674
 Alpha virt. eigenvalues --    0.26106   0.26184   0.26499   0.26606   0.27117
 Alpha virt. eigenvalues --    0.27420   0.27817   0.27930   0.28638   0.28841
 Alpha virt. eigenvalues --    0.29075   0.29280   0.29375   0.29796   0.29911
 Alpha virt. eigenvalues --    0.30404   0.30621   0.30680   0.30993   0.31473
 Alpha virt. eigenvalues --    0.31708   0.31937   0.32232   0.32589   0.32810
 Alpha virt. eigenvalues --    0.32874   0.33191   0.33591   0.33902   0.34073
 Alpha virt. eigenvalues --    0.34230   0.34563   0.35038   0.35204   0.36116
 Alpha virt. eigenvalues --    0.36237   0.36754   0.36972   0.37014   0.38005
 Alpha virt. eigenvalues --    0.38176   0.38262   0.38551   0.38813   0.39486
 Alpha virt. eigenvalues --    0.39774   0.40235   0.40277   0.40508   0.40913
 Alpha virt. eigenvalues --    0.41517   0.41734   0.42072   0.42417   0.42866
 Alpha virt. eigenvalues --    0.43003   0.43343   0.44039   0.44195   0.44287
 Alpha virt. eigenvalues --    0.44704   0.45835   0.46309   0.47397   0.47682
 Alpha virt. eigenvalues --    0.48125   0.48879   0.49026   0.49344   0.49811
 Alpha virt. eigenvalues --    0.50821   0.51880   0.53109   0.54280   0.55498
 Alpha virt. eigenvalues --    0.55953   0.56717   0.58298   0.58858   0.59652
 Alpha virt. eigenvalues --    0.60467   0.60998   0.61635   0.61912   0.63301
 Alpha virt. eigenvalues --    0.63815   0.64994   0.65163   0.65285   0.66038
 Alpha virt. eigenvalues --    0.67195   0.67244   0.68007   0.68614   0.68898
 Alpha virt. eigenvalues --    0.69212   0.70290   0.70435   0.70546   0.71294
 Alpha virt. eigenvalues --    0.71562   0.71768   0.73364   0.73944   0.74136
 Alpha virt. eigenvalues --    0.75036   0.75814   0.75893   0.76123   0.76544
 Alpha virt. eigenvalues --    0.77170   0.77251   0.77725   0.78224   0.78828
 Alpha virt. eigenvalues --    0.79615   0.79976   0.80203   0.80821   0.81150
 Alpha virt. eigenvalues --    0.81399   0.81769   0.82535   0.82789   0.83350
 Alpha virt. eigenvalues --    0.83387   0.84089   0.84390   0.84923   0.85296
 Alpha virt. eigenvalues --    0.85871   0.86503   0.87247   0.87285   0.88066
 Alpha virt. eigenvalues --    0.88454   0.88557   0.88685   0.89046   0.89666
 Alpha virt. eigenvalues --    0.89790   0.90214   0.90495   0.91137   0.92190
 Alpha virt. eigenvalues --    0.92627   0.93547   0.93985   0.94853   0.95382
 Alpha virt. eigenvalues --    0.95958   0.96894   0.97270   0.97969   0.98871
 Alpha virt. eigenvalues --    0.99859   1.01088   1.02530   1.03378   1.03925
 Alpha virt. eigenvalues --    1.05478   1.06160   1.06949   1.07410   1.08820
 Alpha virt. eigenvalues --    1.10176   1.10315   1.11569   1.12534   1.13777
 Alpha virt. eigenvalues --    1.14711   1.15960   1.16140   1.16749   1.18860
 Alpha virt. eigenvalues --    1.19686   1.20414   1.20752   1.21856   1.23640
 Alpha virt. eigenvalues --    1.25619   1.26561   1.26759   1.28000   1.29747
 Alpha virt. eigenvalues --    1.31757   1.32392   1.33369   1.35347   1.36842
 Alpha virt. eigenvalues --    1.37585   1.38353   1.41354   1.42297   1.44644
 Alpha virt. eigenvalues --    1.45594   1.47575   1.48923   1.50130   1.50815
 Alpha virt. eigenvalues --    1.51371   1.54442   1.55191   1.55442   1.57005
 Alpha virt. eigenvalues --    1.57347   1.58416   1.59174   1.59867   1.60378
 Alpha virt. eigenvalues --    1.61132   1.62456   1.62809   1.63414   1.63877
 Alpha virt. eigenvalues --    1.64440   1.65602   1.65924   1.66567   1.67130
 Alpha virt. eigenvalues --    1.67843   1.68934   1.69163   1.69699   1.70216
 Alpha virt. eigenvalues --    1.70924   1.71206   1.71426   1.72359   1.72598
 Alpha virt. eigenvalues --    1.73735   1.74548   1.74956   1.75264   1.75855
 Alpha virt. eigenvalues --    1.76075   1.76846   1.77220   1.78926   1.79441
 Alpha virt. eigenvalues --    1.79872   1.80253   1.81484   1.81791   1.82357
 Alpha virt. eigenvalues --    1.83090   1.83374   1.83595   1.84491   1.84697
 Alpha virt. eigenvalues --    1.85030   1.85879   1.86135   1.87391   1.88100
 Alpha virt. eigenvalues --    1.88480   1.89483   1.89915   1.91082   1.91596
 Alpha virt. eigenvalues --    1.91672   1.92318   1.93531   1.94315   1.94812
 Alpha virt. eigenvalues --    1.96410   1.96611   1.98156   1.98651   1.99515
 Alpha virt. eigenvalues --    2.00580   2.01598   2.03093   2.03593   2.04630
 Alpha virt. eigenvalues --    2.05373   2.07225   2.09087   2.09506   2.09699
 Alpha virt. eigenvalues --    2.11166   2.11720   2.12083   2.13293   2.14127
 Alpha virt. eigenvalues --    2.14217   2.15596   2.16233   2.18217   2.18858
 Alpha virt. eigenvalues --    2.19427   2.22258   2.22480   2.23666   2.24430
 Alpha virt. eigenvalues --    2.24869   2.26699   2.26817   2.29481   2.30532
 Alpha virt. eigenvalues --    2.31013   2.32013   2.32959   2.35042   2.35769
 Alpha virt. eigenvalues --    2.37892   2.38420   2.39808   2.40421   2.41446
 Alpha virt. eigenvalues --    2.43443   2.43952   2.44662   2.46918   2.48241
 Alpha virt. eigenvalues --    2.50057   2.51470   2.52984   2.54171   2.54704
 Alpha virt. eigenvalues --    2.55481   2.56156   2.56624   2.57823   2.59131
 Alpha virt. eigenvalues --    2.59448   2.60393   2.61219   2.62722   2.63376
 Alpha virt. eigenvalues --    2.63878   2.64485   2.64842   2.65659   2.66591
 Alpha virt. eigenvalues --    2.67565   2.68113   2.68632   2.69364   2.69937
 Alpha virt. eigenvalues --    2.70237   2.71257   2.72260   2.73270   2.73399
 Alpha virt. eigenvalues --    2.75099   2.76314   2.76391   2.77287   2.77949
 Alpha virt. eigenvalues --    2.79434   2.80746   2.82046   2.82581   2.83900
 Alpha virt. eigenvalues --    2.84449   2.85082   2.85807   2.87265   2.88066
 Alpha virt. eigenvalues --    2.88663   2.89065   2.89950   2.90857   2.91850
 Alpha virt. eigenvalues --    2.91998   2.93212   2.93699   2.95444   2.96001
 Alpha virt. eigenvalues --    2.96561   2.98308   2.98824   3.00014   3.00570
 Alpha virt. eigenvalues --    3.01216   3.02917   3.03921   3.04582   3.05100
 Alpha virt. eigenvalues --    3.07272   3.08051   3.08925   3.12951   3.14471
 Alpha virt. eigenvalues --    3.14696   3.15089   3.17665   3.18173   3.18662
 Alpha virt. eigenvalues --    3.22689   3.24122   3.26146   3.28253   3.29248
 Alpha virt. eigenvalues --    3.30702   3.33195   3.35486   3.39763   3.40895
 Alpha virt. eigenvalues --    3.42396   3.46081   3.50236   3.53183   3.54535
 Alpha virt. eigenvalues --    3.59365   3.60357   3.62091   3.66179   3.70336
 Alpha virt. eigenvalues --    3.71453   3.73759   3.83467   3.87521   3.88076
 Alpha virt. eigenvalues --    3.89062   3.89889   3.90841   3.91967   3.92351
 Alpha virt. eigenvalues --    3.92554   3.93066   3.93728   3.94342   3.95088
 Alpha virt. eigenvalues --    3.96512   3.97111   3.98485   4.02294   4.06653
 Alpha virt. eigenvalues --    4.10429   4.13006   4.17839   4.24202   4.27480
 Alpha virt. eigenvalues --    4.30559   4.33112   4.36557   4.38606   4.40861
 Alpha virt. eigenvalues --    4.47639   4.48510   4.96994   5.01099   5.16550
 Alpha virt. eigenvalues --   14.89311  23.81171  23.95112  24.02011  24.07381
 Alpha virt. eigenvalues --   24.08476  24.11445  24.11899  24.13194  24.13980
 Alpha virt. eigenvalues --   24.14151  24.15735  24.16940  24.17785  24.18659
 Alpha virt. eigenvalues --   24.22633  24.25621  24.34641  35.75742
          Condensed to atoms (all electrons):
               1          2          3          4          5          6
     1  C    8.960808  -1.553657  -1.543792   1.261138  -1.189993   0.585450
     2  C   -1.553657   7.321965   0.665065  -0.541057   0.416621  -0.658137
     3  C   -1.543792   0.665065   7.119035  -0.247544  -0.036661   0.585511
     4  C    1.261138  -0.541057  -0.247544   8.192796   0.039119  -1.751685
     5  C   -1.189993   0.416621  -0.036661   0.039119   7.091220  -0.363041
     6  C    0.585450  -0.658137   0.585511  -1.751685  -0.363041   7.953455
     7  H    0.379130  -0.021830   0.041280  -0.005275  -0.051651  -0.005941
     8  H   -0.022953   0.332057  -0.043827   0.010528   0.008593   0.020954
     9  H   -0.029318   0.039718   0.030433  -0.031102   0.470467  -0.103880
    10  H   -0.023228  -0.049378   0.022411   0.032141  -0.033971   0.396878
    11  N    0.091146  -0.027815  -0.371922  -0.142580  -0.238875  -0.031877
    12  C    0.042558   0.011248   0.070328  -0.161670   0.043006  -0.012521
    13  H   -0.177469  -0.093534  -0.088327  -0.230093   0.068416   0.068713
    14  H    0.005772  -0.001336   0.003337   0.022517   0.007678   0.006061
    15  H    0.008881   0.000490   0.021569   0.029658   0.015597   0.000998
    16  C    0.006275   0.025610  -0.068486   0.103119  -0.076097  -0.324246
    17  H    0.003992  -0.008473  -0.006040   0.000434  -0.001756  -0.009015
    18  H    0.000761  -0.002978   0.009094  -0.031380   0.022661   0.035361
    19  H   -0.003864   0.003956  -0.001825   0.008827   0.029673  -0.012114
    20  B    0.055885   0.224839  -0.540727  -0.431604  -0.094800   0.053066
    21  C   -0.188871  -0.115002  -0.386932  -0.072550  -0.089728   0.087961
    22  C   -0.087045  -0.080106  -0.163477  -0.162364  -0.133564   0.106022
    23  C    0.046244   0.070558   0.086868   0.114211   0.012034  -0.002432
    24  C   -0.010860   0.065207   0.212266   0.119040   0.025160  -0.028453
    25  C    0.044228  -0.040911   0.185856  -0.127488  -0.007216  -0.022512
    26  C   -0.076633   0.012303   0.082591   0.087428   0.046439   0.001875
    27  C   -0.010344  -0.007781  -0.040621  -0.083358  -0.022990   0.031654
    28  C   -0.156609   0.012258   0.176054   0.057464   0.138164  -0.035864
    29  C   -0.012414  -0.075500  -0.159737  -0.074878  -0.005838   0.007212
    30  H    0.002239   0.005497   0.008861   0.001709   0.000046   0.000446
    31  H    0.000126  -0.001757  -0.002368   0.004185   0.001175  -0.001633
    32  H    0.007007  -0.002962  -0.032245   0.006336  -0.013509  -0.009108
    33  H    0.047249   0.007787  -0.006277   0.049978  -0.027484   0.003226
    34  H    0.002152  -0.002643   0.026946  -0.001717   0.000690  -0.001673
    35  H    0.002486   0.006497  -0.000934  -0.001094   0.000060  -0.000366
    36  H    0.086576  -0.002532  -0.022326   0.019442  -0.009810  -0.001830
    37  H   -0.011831  -0.021684   0.022733  -0.004710  -0.000903  -0.000567
    38  H   -0.003033   0.001725   0.002545  -0.000966   0.000717   0.000649
    39  H   -0.006619  -0.009241  -0.010706   0.015309   0.006611   0.000067
    40  H    0.065991   0.014151  -0.033285   0.007805  -0.024257   0.014155
    41  H    0.001565   0.003145   0.004605  -0.006909  -0.001745  -0.000152
    42  H   -0.000160  -0.015044  -0.024660   0.004421  -0.001047   0.002652
    43  H   -0.017046  -0.002120  -0.023524   0.020077   0.004837   0.007620
    44  H    0.010004   0.004125   0.001631   0.004124  -0.003006  -0.005116
    45  H   -0.052352   0.020889   0.040246  -0.013444   0.014994   0.008069
    46  H    0.001772   0.001650   0.008306  -0.002568  -0.000532  -0.000292
    47  H   -0.010552  -0.018415  -0.011127  -0.000392   0.001618   0.000522
               7          8          9         10         11         12
     1  C    0.379130  -0.022953  -0.029318  -0.023228   0.091146   0.042558
     2  C   -0.021830   0.332057   0.039718  -0.049378  -0.027815   0.011248
     3  C    0.041280  -0.043827   0.030433   0.022411  -0.371922   0.070328
     4  C   -0.005275   0.010528  -0.031102   0.032141  -0.142580  -0.161670
     5  C   -0.051651   0.008593   0.470467  -0.033971  -0.238875   0.043006
     6  C   -0.005941   0.020954  -0.103880   0.396878  -0.031877  -0.012521
     7  H    0.464900  -0.009823   0.000733  -0.006391   0.001913   0.001561
     8  H   -0.009823   0.605106  -0.002167   0.001436   0.011286  -0.023599
     9  H    0.000733  -0.002167   0.513031  -0.010127  -0.039681   0.000127
    10  H   -0.006391   0.001436  -0.010127   0.475846  -0.007551  -0.000999
    11  N    0.001913   0.011286  -0.039681  -0.007551   7.209348   0.228080
    12  C    0.001561  -0.023599   0.000127  -0.000999   0.228080   6.255631
    13  H   -0.002142  -0.022075   0.007341  -0.001199  -0.082381  -0.210293
    14  H    0.000026   0.000341  -0.001153   0.000131  -0.063982   0.437680
    15  H    0.000472  -0.003251   0.004081  -0.000684  -0.107617   0.458242
    16  C   -0.000951  -0.001481   0.004916   0.001975   0.284612  -0.152391
    17  H   -0.000057  -0.000317  -0.010653   0.000570  -0.054320   0.037393
    18  H    0.000008  -0.000082  -0.003968   0.000245  -0.073391  -0.014326
    19  H   -0.000095  -0.000162   0.005386   0.000260  -0.061256  -0.005125
    20  B   -0.011762  -0.128222  -0.036486  -0.012171   0.295134  -0.571785
    21  C    0.001907  -0.113152  -0.001189  -0.000215  -0.072895  -0.261852
    22  C    0.002106  -0.054839  -0.003171   0.000504   0.065140  -0.185341
    23  C    0.000438   0.010121   0.000353  -0.000073  -0.023613   0.350943
    24  C   -0.002702   0.048757   0.002034   0.000934   0.033060   0.084255
    25  C    0.001191   0.118463  -0.000140  -0.000152   0.042270  -0.057453
    26  C    0.001045  -0.053020   0.000447   0.000105  -0.079111   0.191242
    27  C   -0.000207   0.100826  -0.003834   0.000114   0.036712  -0.132424
    28  C   -0.001914  -0.011512   0.002726   0.000184  -0.111621   0.170406
    29  C   -0.000211   0.008962  -0.000300  -0.000125   0.028527  -0.189134
    30  H    0.000014  -0.001736  -0.000014  -0.000006  -0.000087   0.010821
    31  H    0.000058   0.001462   0.000153  -0.000015  -0.002623   0.034316
    32  H   -0.000212   0.003482  -0.000487   0.000030  -0.005466  -0.009130
    33  H   -0.000762   0.002721   0.000104   0.000423   0.004582   0.038616
    34  H    0.000118  -0.001488   0.000179   0.000043   0.000688   0.001750
    35  H    0.000112  -0.000308  -0.000047  -0.000010   0.000468   0.002343
    36  H    0.000693  -0.008473   0.000091   0.000158  -0.000923   0.008526
    37  H    0.000263   0.005266  -0.000093  -0.000039   0.004423  -0.004028
    38  H   -0.000037  -0.000390   0.000006   0.000011  -0.000174  -0.004912
    39  H    0.000011  -0.000954  -0.000068  -0.000023  -0.003225   0.019965
    40  H    0.000107  -0.003262  -0.000959   0.000790  -0.001651  -0.006630
    41  H    0.000234   0.002941  -0.000043  -0.000043   0.002409  -0.004906
    42  H    0.000021  -0.006381  -0.000191   0.000014   0.001060   0.001610
    43  H   -0.000166   0.002830   0.000388  -0.000058  -0.002466  -0.031974
    44  H    0.000074  -0.001509   0.000212  -0.000029   0.002646   0.007239
    45  H    0.000446  -0.008578   0.000150   0.000117  -0.018942   0.007293
    46  H    0.000004  -0.000024   0.000005  -0.000000   0.000412  -0.001169
    47  H   -0.000085   0.002227  -0.000005  -0.000004  -0.000563  -0.006292
              13         14         15         16         17         18
     1  C   -0.177469   0.005772   0.008881   0.006275   0.003992   0.000761
     2  C   -0.093534  -0.001336   0.000490   0.025610  -0.008473  -0.002978
     3  C   -0.088327   0.003337   0.021569  -0.068486  -0.006040   0.009094
     4  C   -0.230093   0.022517   0.029658   0.103119   0.000434  -0.031380
     5  C    0.068416   0.007678   0.015597  -0.076097  -0.001756   0.022661
     6  C    0.068713   0.006061   0.000998  -0.324246  -0.009015   0.035361
     7  H   -0.002142   0.000026   0.000472  -0.000951  -0.000057   0.000008
     8  H   -0.022075   0.000341  -0.003251  -0.001481  -0.000317  -0.000082
     9  H    0.007341  -0.001153   0.004081   0.004916  -0.010653  -0.003968
    10  H   -0.001199   0.000131  -0.000684   0.001975   0.000570   0.000245
    11  N   -0.082381  -0.063982  -0.107617   0.284612  -0.054320  -0.073391
    12  C   -0.210293   0.437680   0.458242  -0.152391   0.037393  -0.014326
    13  H    2.219207  -0.052214  -0.123980  -0.015869  -0.022279  -0.009918
    14  H   -0.052214   0.509930  -0.042871  -0.026673   0.008350  -0.001719
    15  H   -0.123980  -0.042871   0.599503  -0.016857  -0.004614   0.015640
    16  C   -0.015869  -0.026673  -0.016857   5.434959   0.424765   0.412353
    17  H   -0.022279   0.008350  -0.004614   0.424765   0.552816  -0.046905
    18  H   -0.009918  -0.001719   0.015640   0.412353  -0.046905   0.553522
    19  H    0.045834   0.007046  -0.012445   0.386941  -0.020115  -0.037657
    20  B   -0.252164  -0.012422  -0.096310  -0.051990   0.005875  -0.005748
    21  C    0.521340  -0.032337   0.069669  -0.036327  -0.004077   0.003993
    22  C    0.272096   0.006655  -0.016321  -0.048778  -0.004101   0.006722
    23  C   -0.601314   0.025765   0.010241   0.006090   0.002560  -0.000033
    24  C   -0.113241   0.012904  -0.050887   0.027170   0.001790  -0.003310
    25  C   -0.201324   0.000882  -0.004604  -0.002528  -0.000698  -0.000354
    26  C   -0.093017  -0.008990   0.038339  -0.002436  -0.000785  -0.000101
    27  C   -0.180114  -0.002147  -0.004409  -0.014816  -0.001166   0.001767
    28  C    0.113973  -0.004908  -0.001627   0.054903   0.005142  -0.005749
    29  C    0.386735  -0.008682  -0.006163  -0.010291  -0.000768   0.000679
    30  H   -0.012200   0.001039  -0.000586   0.000126   0.000063   0.000011
    31  H   -0.093335   0.002920   0.005644  -0.000346   0.000148  -0.000107
    32  H    0.025380   0.006928  -0.013728  -0.001096   0.000747   0.000329
    33  H   -0.029642   0.002145  -0.000106   0.003739   0.001313  -0.000885
    34  H   -0.002538   0.000061  -0.000159   0.000232  -0.000132   0.000025
    35  H   -0.009634   0.000197  -0.000615   0.000206   0.000015   0.000005
    36  H   -0.024648   0.000251   0.001062   0.000945   0.000076  -0.000010
    37  H   -0.001306  -0.000146  -0.000449  -0.000038  -0.000014  -0.000021
    38  H    0.008376  -0.000960   0.000240  -0.000335  -0.000087  -0.000004
    39  H   -0.047163  -0.004884   0.004534   0.001234   0.000034   0.000448
    40  H   -0.008924   0.000286  -0.000110  -0.000646  -0.000324   0.000128
    41  H   -0.003178  -0.000170  -0.000153  -0.000472  -0.000085   0.000011
    42  H    0.005123  -0.000163   0.000007  -0.000819   0.000114   0.000033
    43  H   -0.033396  -0.006402   0.005834  -0.015281  -0.003702   0.000597
    44  H   -0.000501  -0.000864  -0.000181   0.001627   0.000794  -0.000351
    45  H    0.042962  -0.001350   0.002518  -0.001585  -0.005099   0.001083
    46  H    0.006359   0.000294  -0.000360   0.000096   0.000002  -0.000010
    47  H    0.022661  -0.000228  -0.000314  -0.000421  -0.000022   0.000021
              19         20         21         22         23         24
     1  C   -0.003864   0.055885  -0.188871  -0.087045   0.046244  -0.010860
     2  C    0.003956   0.224839  -0.115002  -0.080106   0.070558   0.065207
     3  C   -0.001825  -0.540727  -0.386932  -0.163477   0.086868   0.212266
     4  C    0.008827  -0.431604  -0.072550  -0.162364   0.114211   0.119040
     5  C    0.029673  -0.094800  -0.089728  -0.133564   0.012034   0.025160
     6  C   -0.012114   0.053066   0.087961   0.106022  -0.002432  -0.028453
     7  H   -0.000095  -0.011762   0.001907   0.002106   0.000438  -0.002702
     8  H   -0.000162  -0.128222  -0.113152  -0.054839   0.010121   0.048757
     9  H    0.005386  -0.036486  -0.001189  -0.003171   0.000353   0.002034
    10  H    0.000260  -0.012171  -0.000215   0.000504  -0.000073   0.000934
    11  N   -0.061256   0.295134  -0.072895   0.065140  -0.023613   0.033060
    12  C   -0.005125  -0.571785  -0.261852  -0.185341   0.350943   0.084255
    13  H    0.045834  -0.252164   0.521340   0.272096  -0.601314  -0.113241
    14  H    0.007046  -0.012422  -0.032337   0.006655   0.025765   0.012904
    15  H   -0.012445  -0.096310   0.069669  -0.016321   0.010241  -0.050887
    16  C    0.386941  -0.051990  -0.036327  -0.048778   0.006090   0.027170
    17  H   -0.020115   0.005875  -0.004077  -0.004101   0.002560   0.001790
    18  H   -0.037657  -0.005748   0.003993   0.006722  -0.000033  -0.003310
    19  H    0.517519  -0.016746  -0.002234  -0.010215  -0.001160   0.002411
    20  B   -0.016746  12.164516   0.848614   0.863010  -0.717131  -1.141987
    21  C   -0.002234   0.848614   8.402848  -0.532257  -1.940265  -0.720068
    22  C   -0.010215   0.863010  -0.532257   8.318026   0.539023   0.175119
    23  C   -0.001160  -0.717131  -1.940265   0.539023   9.153897   0.587641
    24  C    0.002411  -1.141987  -0.720068   0.175119   0.587641   6.649099
    25  C    0.000028  -0.868893  -0.964791   0.275293  -0.171633  -0.106258
    26  C   -0.000242  -0.755064   0.748667  -2.044180  -0.985018  -0.277521
    27  C   -0.002619  -1.027884   0.281547  -0.823160  -0.199614  -0.140676
    28  C    0.012294  -0.970368   0.036541  -0.401604  -0.034708  -0.064239
    29  C   -0.001980  -0.061072   0.574288   0.329795  -0.849647  -0.203325
    30  H   -0.000080   0.007808  -0.035655   0.019759   0.492760  -0.002023
    31  H   -0.000446  -0.050139  -0.049747  -0.022374   0.450469   0.014613
    32  H   -0.000351   0.045161   0.091523   0.001698  -0.031738   0.238960
    33  H    0.000080  -0.364789  -0.084116   0.054753   0.176751   0.599743
    34  H    0.000075   0.028668  -0.041160   0.005217  -0.067673   0.417219
    35  H    0.000005   0.053001   0.006991  -0.011146  -0.072167  -0.051101
    36  H    0.000041  -0.032554  -0.039143  -0.020611   0.038432   0.003579
    37  H   -0.000065  -0.074661  -0.047841   0.059666   0.020206   0.088229
    38  H    0.000094   0.025157   0.029653  -0.018605  -0.043815  -0.006557
    39  H   -0.000910  -0.108599  -0.008945  -0.044446   0.009914  -0.013889
    40  H   -0.000152  -0.140428   0.019006  -0.100257  -0.036898  -0.027926
    41  H   -0.000041   0.037571  -0.009385   0.034560   0.001781   0.001021
    42  H   -0.000058   0.000950   0.037853  -0.011769   0.042650  -0.021068
    43  H   -0.004196  -0.020965   0.029776   0.077586  -0.037410  -0.009619
    44  H    0.000915   0.069223   0.000369   0.001142   0.023049  -0.001821
    45  H    0.000986  -0.325427   0.070006  -0.087727  -0.052154  -0.025701
    46  H    0.000003  -0.001887   0.019214   0.016143  -0.061908   0.002110
    47  H   -0.000080  -0.033843   0.084147   0.069581  -0.168057   0.000137
              25         26         27         28         29         30
     1  C    0.044228  -0.076633  -0.010344  -0.156609  -0.012414   0.002239
     2  C   -0.040911   0.012303  -0.007781   0.012258  -0.075500   0.005497
     3  C    0.185856   0.082591  -0.040621   0.176054  -0.159737   0.008861
     4  C   -0.127488   0.087428  -0.083358   0.057464  -0.074878   0.001709
     5  C   -0.007216   0.046439  -0.022990   0.138164  -0.005838   0.000046
     6  C   -0.022512   0.001875   0.031654  -0.035864   0.007212   0.000446
     7  H    0.001191   0.001045  -0.000207  -0.001914  -0.000211   0.000014
     8  H    0.118463  -0.053020   0.100826  -0.011512   0.008962  -0.001736
     9  H   -0.000140   0.000447  -0.003834   0.002726  -0.000300  -0.000014
    10  H   -0.000152   0.000105   0.000114   0.000184  -0.000125  -0.000006
    11  N    0.042270  -0.079111   0.036712  -0.111621   0.028527  -0.000087
    12  C   -0.057453   0.191242  -0.132424   0.170406  -0.189134   0.010821
    13  H   -0.201324  -0.093017  -0.180114   0.113973   0.386735  -0.012200
    14  H    0.000882  -0.008990  -0.002147  -0.004908  -0.008682   0.001039
    15  H   -0.004604   0.038339  -0.004409  -0.001627  -0.006163  -0.000586
    16  C   -0.002528  -0.002436  -0.014816   0.054903  -0.010291   0.000126
    17  H   -0.000698  -0.000785  -0.001166   0.005142  -0.000768   0.000063
    18  H   -0.000354  -0.000101   0.001767  -0.005749   0.000679   0.000011
    19  H    0.000028  -0.000242  -0.002619   0.012294  -0.001980  -0.000080
    20  B   -0.868893  -0.755064  -1.027884  -0.970368  -0.061072   0.007808
    21  C   -0.964791   0.748667   0.281547   0.036541   0.574288  -0.035655
    22  C    0.275293  -2.044180  -0.823160  -0.401604   0.329795   0.019759
    23  C   -0.171633  -0.985018  -0.199614  -0.034708  -0.849647   0.492760
    24  C   -0.106258  -0.277521  -0.140676  -0.064239  -0.203325  -0.002023
    25  C    7.708946  -0.282983  -0.054274  -0.098666   0.020084  -0.049246
    26  C   -0.282983   9.480847  -0.216872   0.354476  -0.714045  -0.024723
    27  C   -0.054274  -0.216872   8.077065  -0.492448   0.156563  -0.000488
    28  C   -0.098666   0.354476  -0.492448   6.668212  -0.157216  -0.000116
    29  C    0.020084  -0.714045   0.156563  -0.157216   6.904577  -0.107218
    30  H   -0.049246  -0.024723  -0.000488  -0.000116  -0.107218   0.536257
    31  H    0.110424  -0.002556  -0.022311   0.000029  -0.065828  -0.028873
    32  H    0.043871  -0.023411  -0.000851  -0.008355   0.025546  -0.003015
    33  H   -0.058550  -0.056297  -0.039777  -0.011659  -0.027889   0.005940
    34  H   -0.006569   0.007829  -0.002638  -0.003012  -0.001771   0.004801
    35  H    0.424964   0.012794   0.010862   0.001624  -0.012753   0.004275
    36  H    0.381472  -0.003693  -0.007832  -0.014888  -0.003080   0.003353
    37  H    0.415184  -0.021354  -0.027403  -0.020644  -0.020972   0.001372
    38  H    0.010646   0.443016  -0.023841  -0.032599  -0.062738  -0.001092
    39  H   -0.027001   0.470090   0.088468   0.022843  -0.041722  -0.001958
    40  H   -0.010797   0.052728   0.518432   0.000877   0.003117  -0.000205
    41  H    0.020789  -0.112789   0.453299  -0.068130   0.008648  -0.000348
    42  H   -0.063093   0.046599   0.317435   0.051411  -0.018794   0.001519
    43  H   -0.001118  -0.007477   0.094207   0.259271   0.025946  -0.000767
    44  H   -0.005069  -0.090413  -0.053503   0.407904  -0.008448   0.000541
    45  H   -0.032971   0.187255  -0.008292   0.507110  -0.011130  -0.001259
    46  H   -0.008379  -0.056490  -0.005599  -0.002701   0.448960  -0.006891
    47  H   -0.022569  -0.130369  -0.017425   0.011174   0.594027  -0.005593
              31         32         33         34         35         36
     1  C    0.000126   0.007007   0.047249   0.002152   0.002486   0.086576
     2  C   -0.001757  -0.002962   0.007787  -0.002643   0.006497  -0.002532
     3  C   -0.002368  -0.032245  -0.006277   0.026946  -0.000934  -0.022326
     4  C    0.004185   0.006336   0.049978  -0.001717  -0.001094   0.019442
     5  C    0.001175  -0.013509  -0.027484   0.000690   0.000060  -0.009810
     6  C   -0.001633  -0.009108   0.003226  -0.001673  -0.000366  -0.001830
     7  H    0.000058  -0.000212  -0.000762   0.000118   0.000112   0.000693
     8  H    0.001462   0.003482   0.002721  -0.001488  -0.000308  -0.008473
     9  H    0.000153  -0.000487   0.000104   0.000179  -0.000047   0.000091
    10  H   -0.000015   0.000030   0.000423   0.000043  -0.000010   0.000158
    11  N   -0.002623  -0.005466   0.004582   0.000688   0.000468  -0.000923
    12  C    0.034316  -0.009130   0.038616   0.001750   0.002343   0.008526
    13  H   -0.093335   0.025380  -0.029642  -0.002538  -0.009634  -0.024648
    14  H    0.002920   0.006928   0.002145   0.000061   0.000197   0.000251
    15  H    0.005644  -0.013728  -0.000106  -0.000159  -0.000615   0.001062
    16  C   -0.000346  -0.001096   0.003739   0.000232   0.000206   0.000945
    17  H    0.000148   0.000747   0.001313  -0.000132   0.000015   0.000076
    18  H   -0.000107   0.000329  -0.000885   0.000025   0.000005  -0.000010
    19  H   -0.000446  -0.000351   0.000080   0.000075   0.000005   0.000041
    20  B   -0.050139   0.045161  -0.364789   0.028668   0.053001  -0.032554
    21  C   -0.049747   0.091523  -0.084116  -0.041160   0.006991  -0.039143
    22  C   -0.022374   0.001698   0.054753   0.005217  -0.011146  -0.020611
    23  C    0.450469  -0.031738   0.176751  -0.067673  -0.072167   0.038432
    24  C    0.014613   0.238960   0.599743   0.417219  -0.051101   0.003579
    25  C    0.110424   0.043871  -0.058550  -0.006569   0.424964   0.381472
    26  C   -0.002556  -0.023411  -0.056297   0.007829   0.012794  -0.003693
    27  C   -0.022311  -0.000851  -0.039777  -0.002638   0.010862  -0.007832
    28  C    0.000029  -0.008355  -0.011659  -0.003012   0.001624  -0.014888
    29  C   -0.065828   0.025546  -0.027889  -0.001771  -0.012753  -0.003080
    30  H   -0.028873  -0.003015   0.005940   0.004801   0.004275   0.003353
    31  H    0.557456   0.004773   0.003343  -0.005448   0.000977  -0.003848
    32  H    0.004773   0.639708  -0.045576  -0.038769   0.005219   0.004889
    33  H    0.003343  -0.045576   0.568076  -0.034483  -0.008511   0.001346
    34  H   -0.005448  -0.038769  -0.034483   0.516827   0.000765   0.000621
    35  H    0.000977   0.005219  -0.008511   0.000765   0.514038  -0.020657
    36  H   -0.003848   0.004889   0.001346   0.000621  -0.020657   0.552557
    37  H    0.005203  -0.010403   0.007121   0.008384  -0.043475  -0.036642
    38  H   -0.001245  -0.000226  -0.001148  -0.000040  -0.000064   0.000070
    39  H   -0.003173  -0.000989  -0.003361  -0.000515   0.001395  -0.000304
    40  H   -0.002154  -0.001192  -0.005795   0.000051   0.001076   0.001610
    41  H    0.000803  -0.000172  -0.000165   0.000127  -0.000322  -0.000051
    42  H   -0.001779   0.001234  -0.000965  -0.001717   0.002041  -0.001847
    43  H    0.002333  -0.001290  -0.003339   0.000157  -0.000235  -0.000860
    44  H   -0.001052   0.000476   0.000354  -0.000185   0.000188   0.000680
    45  H   -0.002611  -0.002471  -0.005473  -0.000185  -0.000029  -0.003493
    46  H   -0.017895   0.000530  -0.000182   0.000509  -0.001283   0.001394
    47  H    0.005692   0.002396  -0.002531  -0.000701  -0.002207  -0.008464
              37         38         39         40         41         42
     1  C   -0.011831  -0.003033  -0.006619   0.065991   0.001565  -0.000160
     2  C   -0.021684   0.001725  -0.009241   0.014151   0.003145  -0.015044
     3  C    0.022733   0.002545  -0.010706  -0.033285   0.004605  -0.024660
     4  C   -0.004710  -0.000966   0.015309   0.007805  -0.006909   0.004421
     5  C   -0.000903   0.000717   0.006611  -0.024257  -0.001745  -0.001047
     6  C   -0.000567   0.000649   0.000067   0.014155  -0.000152   0.002652
     7  H    0.000263  -0.000037   0.000011   0.000107   0.000234   0.000021
     8  H    0.005266  -0.000390  -0.000954  -0.003262   0.002941  -0.006381
     9  H   -0.000093   0.000006  -0.000068  -0.000959  -0.000043  -0.000191
    10  H   -0.000039   0.000011  -0.000023   0.000790  -0.000043   0.000014
    11  N    0.004423  -0.000174  -0.003225  -0.001651   0.002409   0.001060
    12  C   -0.004028  -0.004912   0.019965  -0.006630  -0.004906   0.001610
    13  H   -0.001306   0.008376  -0.047163  -0.008924  -0.003178   0.005123
    14  H   -0.000146  -0.000960  -0.004884   0.000286  -0.000170  -0.000163
    15  H   -0.000449   0.000240   0.004534  -0.000110  -0.000153   0.000007
    16  C   -0.000038  -0.000335   0.001234  -0.000646  -0.000472  -0.000819
    17  H   -0.000014  -0.000087   0.000034  -0.000324  -0.000085   0.000114
    18  H   -0.000021  -0.000004   0.000448   0.000128   0.000011   0.000033
    19  H   -0.000065   0.000094  -0.000910  -0.000152  -0.000041  -0.000058
    20  B   -0.074661   0.025157  -0.108599  -0.140428   0.037571   0.000950
    21  C   -0.047841   0.029653  -0.008945   0.019006  -0.009385   0.037853
    22  C    0.059666  -0.018605  -0.044446  -0.100257   0.034560  -0.011769
    23  C    0.020206  -0.043815   0.009914  -0.036898   0.001781   0.042650
    24  C    0.088229  -0.006557  -0.013889  -0.027926   0.001021  -0.021068
    25  C    0.415184   0.010646  -0.027001  -0.010797   0.020789  -0.063093
    26  C   -0.021354   0.443016   0.470090   0.052728  -0.112789   0.046599
    27  C   -0.027403  -0.023841   0.088468   0.518432   0.453299   0.317435
    28  C   -0.020644  -0.032599   0.022843   0.000877  -0.068130   0.051411
    29  C   -0.020972  -0.062738  -0.041722   0.003117   0.008648  -0.018794
    30  H    0.001372  -0.001092  -0.001958  -0.000205  -0.000348   0.001519
    31  H    0.005203  -0.001245  -0.003173  -0.002154   0.000803  -0.001779
    32  H   -0.010403  -0.000226  -0.000989  -0.001192  -0.000172   0.001234
    33  H    0.007121  -0.001148  -0.003361  -0.005795  -0.000165  -0.000965
    34  H    0.008384  -0.000040  -0.000515   0.000051   0.000127  -0.001717
    35  H   -0.043475  -0.000064   0.001395   0.001076  -0.000322   0.002041
    36  H   -0.036642   0.000070  -0.000304   0.001610  -0.000051  -0.001847
    37  H    0.607078   0.000300  -0.002575  -0.009007   0.006321  -0.029783
    38  H    0.000300   0.528207  -0.031780   0.001416   0.005658   0.002332
    39  H   -0.002575  -0.031780   0.548741  -0.003275  -0.001637   0.005033
    40  H   -0.009007   0.001416  -0.003275   0.534695  -0.030469  -0.020740
    41  H    0.006321   0.005658  -0.001637  -0.030469   0.511084  -0.038386
    42  H   -0.029783   0.002332   0.005033  -0.020740  -0.038386   0.582050
    43  H    0.000705  -0.003487   0.017900   0.004169   0.005518  -0.008872
    44  H   -0.002270   0.003612  -0.009184  -0.005684  -0.000021   0.013007
    45  H   -0.003701   0.005037   0.003353   0.016392  -0.008823   0.002845
    46  H   -0.002619  -0.007459  -0.015673   0.000828  -0.001032  -0.000219
    47  H   -0.005067  -0.001590   0.006910  -0.008179  -0.001781  -0.008296
              43         44         45         46         47
     1  C   -0.017046   0.010004  -0.052352   0.001772  -0.010552
     2  C   -0.002120   0.004125   0.020889   0.001650  -0.018415
     3  C   -0.023524   0.001631   0.040246   0.008306  -0.011127
     4  C    0.020077   0.004124  -0.013444  -0.002568  -0.000392
     5  C    0.004837  -0.003006   0.014994  -0.000532   0.001618
     6  C    0.007620  -0.005116   0.008069  -0.000292   0.000522
     7  H   -0.000166   0.000074   0.000446   0.000004  -0.000085
     8  H    0.002830  -0.001509  -0.008578  -0.000024   0.002227
     9  H    0.000388   0.000212   0.000150   0.000005  -0.000005
    10  H   -0.000058  -0.000029   0.000117  -0.000000  -0.000004
    11  N   -0.002466   0.002646  -0.018942   0.000412  -0.000563
    12  C   -0.031974   0.007239   0.007293  -0.001169  -0.006292
    13  H   -0.033396  -0.000501   0.042962   0.006359   0.022661
    14  H   -0.006402  -0.000864  -0.001350   0.000294  -0.000228
    15  H    0.005834  -0.000181   0.002518  -0.000360  -0.000314
    16  C   -0.015281   0.001627  -0.001585   0.000096  -0.000421
    17  H   -0.003702   0.000794  -0.005099   0.000002  -0.000022
    18  H    0.000597  -0.000351   0.001083  -0.000010   0.000021
    19  H   -0.004196   0.000915   0.000986   0.000003  -0.000080
    20  B   -0.020965   0.069223  -0.325427  -0.001887  -0.033843
    21  C    0.029776   0.000369   0.070006   0.019214   0.084147
    22  C    0.077586   0.001142  -0.087727   0.016143   0.069581
    23  C   -0.037410   0.023049  -0.052154  -0.061908  -0.168057
    24  C   -0.009619  -0.001821  -0.025701   0.002110   0.000137
    25  C   -0.001118  -0.005069  -0.032971  -0.008379  -0.022569
    26  C   -0.007477  -0.090413   0.187255  -0.056490  -0.130369
    27  C    0.094207  -0.053503  -0.008292  -0.005599  -0.017425
    28  C    0.259271   0.407904   0.507110  -0.002701   0.011174
    29  C    0.025946  -0.008448  -0.011130   0.448960   0.594027
    30  H   -0.000767   0.000541  -0.001259  -0.006891  -0.005593
    31  H    0.002333  -0.001052  -0.002611  -0.017895   0.005692
    32  H   -0.001290   0.000476  -0.002471   0.000530   0.002396
    33  H   -0.003339   0.000354  -0.005473  -0.000182  -0.002531
    34  H    0.000157  -0.000185  -0.000185   0.000509  -0.000701
    35  H   -0.000235   0.000188  -0.000029  -0.001283  -0.002207
    36  H   -0.000860   0.000680  -0.003493   0.001394  -0.008464
    37  H    0.000705  -0.002270  -0.003701  -0.002619  -0.005067
    38  H   -0.003487   0.003612   0.005037  -0.007459  -0.001590
    39  H    0.017900  -0.009184   0.003353  -0.015673   0.006910
    40  H    0.004169  -0.005684   0.016392   0.000828  -0.008179
    41  H    0.005518  -0.000021  -0.008823  -0.001032  -0.001781
    42  H   -0.008872   0.013007   0.002845  -0.000219  -0.008296
    43  H    0.586204  -0.061845  -0.018617  -0.001063   0.005628
    44  H   -0.061845   0.553427  -0.040135   0.001218  -0.003466
    45  H   -0.018617  -0.040135   0.573239  -0.000353  -0.000079
    46  H   -0.001063   0.001218  -0.000353   0.497345  -0.034099
    47  H    0.005628  -0.003466  -0.000079  -0.034099   0.550757
 Mulliken charges:
               1
     1  C   -0.530788
     2  C    0.086532
     3  C    0.439795
     4  C   -0.085378
     5  C   -0.037122
     6  C   -0.596126
     7  H    0.223352
     8  H    0.225225
     9  H    0.195996
    10  H    0.211170
    11  N    0.282692
    12  C   -0.467224
    13  H    0.024894
    14  H    0.205402
    15  H    0.216179
    16  C   -0.310634
    17  H    0.158610
    18  H    0.173510
    19  H    0.173857
    20  B   -0.819846
    21  C   -0.115180
    22  C   -0.232159
    23  C   -0.174538
    24  C   -0.389227
    25  C   -0.506347
    26  C   -0.146524
    27  C   -0.497231
    28  C   -0.353883
    29  C   -0.609998
    30  H    0.174923
    31  H    0.177361
    32  H    0.100529
    33  H    0.240372
    34  H    0.191081
    35  H    0.184353
    36  H    0.160657
    37  H    0.151857
    38  H    0.177720
    39  H    0.179957
    40  H    0.225395
    41  H    0.189318
    42  H    0.153836
    43  H    0.165714
    44  H    0.186075
    45  H    0.226993
    46  H    0.223531
    47  H    0.145320
 Sum of Mulliken charges =  -0.00000
 Mulliken charges with hydrogens summed into heavy atoms:
               1
     1  C   -0.307437
     2  C    0.311757
     3  C    0.439795
     4  C   -0.085378
     5  C    0.158874
     6  C   -0.384956
    11  N    0.282692
    12  C   -0.020749
    16  C    0.195344
    20  B   -0.819846
    21  C   -0.115180
    22  C   -0.232159
    23  C    0.177746
    24  C    0.142755
    25  C   -0.009480
    26  C    0.211153
    27  C    0.071318
    28  C    0.224899
    29  C   -0.241146
 Electronic spatial extent (au):  <R**2>=          10219.6748
 Charge=             -0.0000 electrons
 Dipole moment (field-independent basis, Debye):
    X=              0.7615    Y=              1.6459    Z=              0.0658  Tot=              1.8147
 Quadrupole moment (field-independent basis, Debye-Ang):
   XX=           -115.6975   YY=           -102.4973   ZZ=           -125.6956
   XY=              4.0076   XZ=              1.2396   YZ=             -1.6255
 Traceless Quadrupole moment (field-independent basis, Debye-Ang):
   XX=             -1.0673   YY=             12.1328   ZZ=            -11.0655
   XY=              4.0076   XZ=              1.2396   YZ=             -1.6255
 Octapole moment (field-independent basis, Debye-Ang**2):
  XXX=           -857.8619  YYY=           -685.7971  ZZZ=            -41.8930  XYY=           -256.9551
  XXY=           -251.4139  XXZ=            -10.3779  XZZ=           -289.2148  YZZ=           -282.1578
  YYZ=            -23.7857  XYZ=              3.9651
 Hexadecapole moment (field-independent basis, Debye-Ang**3):
 XXXX=          -7410.4335 YYYY=          -4823.8809 ZZZZ=          -1483.3005 XXXY=          -1548.4014
 XXXZ=           -150.0742 YYYX=          -1378.2396 YYYZ=            -39.2830 ZZZX=           -154.8827
 ZZZY=             31.6455 XXYY=          -2052.9454 XXZZ=          -1496.4156 YYZZ=          -1202.3007
 XXYZ=             14.9289 YYXZ=            -44.2692 ZZXY=           -546.6780
 N-N= 1.554813126151D+03 E-N=-4.834749748549D+03  KE= 7.406445313673D+02
 Breneman (CHELPG) radii used.
 Generate Potential Derived Charges using the Breneman model, NDens= 1.
 Grid spacing= 0.300 Box extension= 2.800
 NStep X,Y,Z=   52     44     42   Total possible points=       96096
 Number of Points to Fit=   21149

 **********************************************************************

            Electrostatic Properties Using The SCF Density.

 **********************************************************************

       Atomic Center    1 is at  -0.880845  0.961215  0.347897
       Atomic Center    2 is at   0.509688  0.921633  0.388180
       Atomic Center    3 is at   1.309053  2.048375  0.178579
       Atomic Center    4 is at   0.662123  3.280313 -0.092116
       Atomic Center    5 is at  -0.740579  3.320659 -0.095080
       Atomic Center    6 is at  -1.500808  2.176203  0.113123
       Atomic Center    7 is at  -1.460543  0.059071  0.505398
       Atomic Center    8 is at   0.988041 -0.035612  0.571097
       Atomic Center    9 is at  -1.259283  4.254983 -0.260496
       Atomic Center   10 is at  -2.583008  2.248533  0.095317
       Atomic Center   11 is at   1.396633  4.432563 -0.411998
       Atomic Center   12 is at   2.637365  4.706465  0.277814
       Atomic Center   13 is at   3.295642  3.834981  0.309420
       Atomic Center   14 is at   3.189856  5.474886 -0.267052
       Atomic Center   15 is at   2.484689  5.051384  1.310790
       Atomic Center   16 is at   0.671559  5.634661 -0.766037
       Atomic Center   17 is at  -0.040555  5.429769 -1.567591
       Atomic Center   18 is at   0.126800  6.080828  0.081610
       Atomic Center   19 is at   1.382522  6.374714 -1.136895
       Atomic Center   20 is at   2.868531  1.803203  0.198839
       Atomic Center   21 is at   3.625670  1.539572  1.592923
       Atomic Center   22 is at   3.650943  1.608890 -1.183942
       Atomic Center   23 is at   5.126531  1.881853  1.475818
       Atomic Center   24 is at   3.028107  2.320163  2.774478
       Atomic Center   25 is at   3.477311  0.037047  1.945429
       Atomic Center   26 is at   5.160145  1.894803 -1.044565
       Atomic Center   27 is at   3.433913  0.123589 -1.574757
       Atomic Center   28 is at   3.092998  2.453414 -2.339799
       Atomic Center   29 is at   5.797795  1.326796  0.221476
       Atomic Center   30 is at   5.646239  1.526499  2.375480
       Atomic Center   31 is at   5.241413  2.975117  1.472409
       Atomic Center   32 is at   3.164725  3.398458  2.663400
       Atomic Center   33 is at   1.957007  2.128384  2.881041
       Atomic Center   34 is at   3.520900  2.024337  3.708629
       Atomic Center   35 is at   4.047656 -0.167491  2.859254
       Atomic Center   36 is at   2.436679 -0.225925  2.148973
       Atomic Center   37 is at   3.850108 -0.635014  1.171136
       Atomic Center   38 is at   5.681794  1.520113 -1.935285
       Atomic Center   39 is at   5.308049  2.983793 -1.042579
       Atomic Center   40 is at   2.369923 -0.123679 -1.639388
       Atomic Center   41 is at   3.873981 -0.050238 -2.563616
       Atomic Center   42 is at   3.901886 -0.577494 -0.881667
       Atomic Center   43 is at   3.214030  3.523773 -2.158429
       Atomic Center   44 is at   3.621372  2.207713 -3.269376
       Atomic Center   45 is at   2.027213  2.265695 -2.495378
       Atomic Center   46 is at   6.863237  1.577674  0.235971
       Atomic Center   47 is at   5.745821  0.232237  0.217156
   21149 points will be used for fitting atomic charges
 Fitting point charges to electrostatic potential
 Charges from ESP fit, RMS=   0.00292 RRMS=   0.29843:
 ESP charges:
               1
     1  C   -0.221238
     2  C   -0.010746
     3  C   -0.164762
     4  C    0.242867
     5  C   -0.252460
     6  C   -0.070000
     7  H    0.112099
     8  H    0.068543
     9  H    0.126170
    10  H    0.098549
    11  N   -0.200568
    12  C   -0.018271
    13  H    0.017016
    14  H    0.077791
    15  H    0.046472
    16  C   -0.139645
    17  H    0.074682
    18  H    0.055120
    19  H    0.086689
    20  B    0.291064
    21  C    0.225114
    22  C    0.271388
    23  C   -0.126311
    24  C   -0.199838
    25  C   -0.267812
    26  C   -0.151849
    27  C   -0.180180
    28  C   -0.233376
    29  C    0.007829
    30  H    0.017670
    31  H    0.004571
    32  H    0.017825
    33  H   -0.015466
    34  H    0.053557
    35  H    0.062258
    36  H    0.048010
    37  H    0.063283
    38  H    0.012929
    39  H    0.018317
    40  H   -0.002887
    41  H    0.046775
    42  H    0.035093
    43  H    0.011605
    44  H    0.052109
    45  H   -0.000028
    46  H    0.020950
    47  H   -0.010909
 Sum of ESP charges =   0.00000
 ESP charges with hydrogens summed into heavy atoms:
               1
     1  C   -0.109139
     2  C    0.057797
     3  C   -0.164762
     4  C    0.242867
     5  C   -0.126290
     6  C    0.028549
    11  N   -0.200568
    12  C    0.123008
    16  C    0.076847
    20  B    0.291064
    21  C    0.225114
    22  C    0.271388
    23  C   -0.104069
    24  C   -0.143922
    25  C   -0.094260
    26  C   -0.120604
    27  C   -0.101199
    28  C   -0.169690
    29  C    0.017870
 Charge=   0.00000 Dipole=     0.7585     1.6530     0.0973 Tot=     1.8213
 -----------------------------------------------------------------

              Electrostatic Properties (Atomic Units)

 -----------------------------------------------------------------
    Center     Electric         -------- Electric Field --------
               Potential          X             Y             Z
 -----------------------------------------------------------------
    1 Atom    -14.793856
    2 Atom    -14.783606
    3 Atom    -14.797798
    4 Atom    -14.737143
    5 Atom    -14.788852
    6 Atom    -14.786536
    7 Atom     -1.119112
    8 Atom     -1.116752
    9 Atom     -1.112087
   10 Atom     -1.116182
   11 Atom    -18.375279
   12 Atom    -14.735114
   13 Atom     -1.093212
   14 Atom     -1.098418
   15 Atom     -1.108479
   16 Atom    -14.744056
   17 Atom     -1.109585
   18 Atom     -1.112882
   19 Atom     -1.103965
   20 Atom    -11.470029
   21 Atom    -14.781574
   22 Atom    -14.785131
   23 Atom    -14.784303
   24 Atom    -14.796127
   25 Atom    -14.785122
   26 Atom    -14.786072
   27 Atom    -14.787261
   28 Atom    -14.801210
   29 Atom    -14.784539
   30 Atom     -1.135881
   31 Atom     -1.133005
   32 Atom     -1.132494
   33 Atom     -1.137970
   34 Atom     -1.135024
   35 Atom     -1.125798
   36 Atom     -1.126630
   37 Atom     -1.124764
   38 Atom     -1.137734
   39 Atom     -1.135363
   40 Atom     -1.129599
   41 Atom     -1.127881
   42 Atom     -1.126462
   43 Atom     -1.139993
   44 Atom     -1.139929
   45 Atom     -1.143426
   46 Atom     -1.134581
   47 Atom     -1.134835
 -----------------------------------------------------------------
 Unable to Open any file for archive entry.
 1\1\GINC-IRENE5309\SP\RwB97XD\GenECP\C17H28B1N1\PENASFRA\09-Apr-2024\0
 \\# wb97xd/genecp scrf=(solvent=toluene,pcm) nosymm pop=(chelpg) scfcy
 c=300\\4meborinane_dimethylaniline_chelpg\\0,1\C,0,-0.880845,0.961215,
 0.347897\C,0,0.509688,0.921633,0.38818\C,0,1.309053,2.048375,0.178579\
 C,0,0.662123,3.280313,-0.092116\C,0,-0.740579,3.320659,-0.09508\C,0,-1
 .500808,2.176203,0.113123\H,0,-1.460543,0.059071,0.505398\H,0,0.988041
 ,-0.035612,0.571097\H,0,-1.259283,4.254983,-0.260496\H,0,-2.583008,2.2
 48533,0.095317\N,0,1.396633,4.432563,-0.411998\C,0,2.637365,4.706465,0
 .277814\H,0,3.295642,3.834981,0.30942\H,0,3.189856,5.474886,-0.267052\
 H,0,2.484689,5.051384,1.31079\C,0,0.671559,5.634661,-0.766037\H,0,-0.0
 40555,5.429769,-1.567591\H,0,0.1268,6.080828,0.08161\H,0,1.382522,6.37
 4714,-1.136895\B,0,2.868531,1.803203,0.198839\C,0,3.62567,1.539572,1.5
 92923\C,0,3.650943,1.60889,-1.183942\C,0,5.126531,1.881853,1.475818\C,
 0,3.028107,2.320163,2.774478\C,0,3.477311,0.037047,1.945429\C,0,5.1601
 45,1.894803,-1.044565\C,0,3.433913,0.123589,-1.574757\C,0,3.092998,2.4
 53414,-2.339799\C,0,5.797795,1.326796,0.221476\H,0,5.646239,1.526499,2
 .37548\H,0,5.241413,2.975117,1.472409\H,0,3.164725,3.398458,2.6634\H,0
 ,1.957007,2.128384,2.881041\H,0,3.5209,2.024337,3.708629\H,0,4.047656,
 -0.167491,2.859254\H,0,2.436679,-0.225925,2.148973\H,0,3.850108,-0.635
 014,1.171136\H,0,5.681794,1.520113,-1.935285\H,0,5.308049,2.983793,-1.
 042579\H,0,2.369923,-0.123679,-1.639388\H,0,3.873981,-0.050238,-2.5636
 16\H,0,3.901886,-0.577494,-0.881667\H,0,3.21403,3.523773,-2.158429\H,0
 ,3.621372,2.207713,-3.269376\H,0,2.027213,2.265695,-2.495378\H,0,6.863
 237,1.577674,0.235971\H,0,5.745821,0.232237,0.217156\\Version=AS64L-G1
 6RevC.02\HF=-744.2537603\RMSD=8.391e-09\Dipole=0.299594,0.6475437,0.02
 58911\Quadrupole=-0.7935441,9.0204496,-8.2269055,2.9795301,0.921619,-1
 .208488\PG=C01 [X(C17H28B1N1)]\\@
 The archive entry for this job was punched.


 I think that all right-thinking people in this
 country are sick and tired of being told that
 ordinary, decent people are fed up in this country
 with being sick and tired.  I'm certainly not!
 But I'm sick and tired of being told that I am!
                               -- Monty Python
 Job cpu time:       0 days  2 hours 54 minutes 56.5 seconds.
 Elapsed time:       0 days  0 hours  1 minutes 40.2 seconds.
 File lengths (MBytes):  RWF=    317 Int=      0 D2E=      0 Chk=     24 Scr=      1
 Normal termination of Gaussian 16 at Tue Apr  9 17:06:04 2024.
