 Entering Gaussian System, Link 0=/ccc/products/gaussian-16-C.02/system/default/g16/g16
 Input=bicyclo_metriazole_chelpg.gjf
 Output=bicyclo_metriazole_chelpg.log
 Initial command:
 /ccc/products/gaussian-16-C.02/system/default/g16/l1.exe "/ccc/scratch/cont003/gen7343/penasfra/flp/b-n_flp/bicyclo_metriazole/Reactant/Gau-2901846.inp" -scrdir="/ccc/scratch/cont003/gen7343/penasfra/flp/b-n_flp/bicyclo_metriazole/Reactant/"
 Entering Link 1 = /ccc/products/gaussian-16-C.02/system/default/g16/l1.exe PID=   2901895.
  
 Copyright (c) 1988-2021, Gaussian, Inc.  All Rights Reserved.
  
 This is part of the Gaussian(R) 16 program.  It is based on
 the Gaussian(R) 09 system (copyright 2009, Gaussian, Inc.),
 the Gaussian(R) 03 system (copyright 2003, Gaussian, Inc.),
 the Gaussian(R) 98 system (copyright 1998, Gaussian, Inc.),
 the Gaussian(R) 94 system (copyright 1995, Gaussian, Inc.),
 the Gaussian 92(TM) system (copyright 1992, Gaussian, Inc.),
 the Gaussian 90(TM) system (copyright 1990, Gaussian, Inc.),
 the Gaussian 88(TM) system (copyright 1988, Gaussian, Inc.),
 the Gaussian 86(TM) system (copyright 1986, Carnegie Mellon
 University), and the Gaussian 82(TM) system (copyright 1983,
 Carnegie Mellon University). Gaussian is a federally registered
 trademark of Gaussian, Inc.
  
 This software contains proprietary and confidential information,
 including trade secrets, belonging to Gaussian, Inc.
  
 This software is provided under written license and may be
 used, copied, transmitted, or stored only in accord with that
 written license.
  
 The following legend is applicable only to US Government
 contracts under FAR:
  
                    RESTRICTED RIGHTS LEGEND
  
 Use, reproduction and disclosure by the US Government is
 subject to restrictions as set forth in subparagraphs (a)
 and (c) of the Commercial Computer Software - Restricted
 Rights clause in FAR 52.227-19.
  
 Gaussian, Inc.
 340 Quinnipiac St., Bldg. 40, Wallingford CT 06492
  
  
 ---------------------------------------------------------------
 Warning -- This program may not be used in any manner that
 competes with the business of Gaussian, Inc. or will provide
 assistance to any competitor of Gaussian, Inc.  The licensee
 of this program is prohibited from giving any competitor of
 Gaussian, Inc. access to this program.  By using this program,
 the user acknowledges that Gaussian, Inc. is engaged in the
 business of creating and licensing software in the field of
 computational chemistry and represents and warrants to the
 licensee that it is not a competitor of Gaussian, Inc. and that
 it will not use this program in any manner prohibited above.
 ---------------------------------------------------------------
  

 Cite this work as:
 Gaussian 16, Revision C.02,
 M. J. Frisch, G. W. Trucks, H. B. Schlegel, G. E. Scuseria, 
 M. A. Robb, J. R. Cheeseman, G. Scalmani, V. Barone, 
 G. A. Petersson, H. Nakatsuji, X. Li, M. Caricato, A. V. Marenich, 
 J. Bloino, B. G. Janesko, R. Gomperts, B. Mennucci, H. P. Hratchian, 
 J. V. Ortiz, A. F. Izmaylov, J. L. Sonnenberg, D. Williams-Young, 
 F. Ding, F. Lipparini, F. Egidi, J. Goings, B. Peng, A. Petrone, 
 T. Henderson, D. Ranasinghe, V. G. Zakrzewski, J. Gao, N. Rega, 
 G. Zheng, W. Liang, M. Hada, M. Ehara, K. Toyota, R. Fukuda, 
 J. Hasegawa, M. Ishida, T. Nakajima, Y. Honda, O. Kitao, H. Nakai, 
 T. Vreven, K. Throssell, J. A. Montgomery, Jr., J. E. Peralta, 
 F. Ogliaro, M. J. Bearpark, J. J. Heyd, E. N. Brothers, K. N. Kudin, 
 V. N. Staroverov, T. A. Keith, R. Kobayashi, J. Normand, 
 K. Raghavachari, A. P. Rendell, J. C. Burant, S. S. Iyengar, 
 J. Tomasi, M. Cossi, J. M. Millam, M. Klene, C. Adamo, R. Cammi, 
 J. W. Ochterski, R. L. Martin, K. Morokuma, O. Farkas, 
 J. B. Foresman, and D. J. Fox, Gaussian, Inc., Wallingford CT, 2019.
 
 ******************************************
 Gaussian 16:  AS64L-G16RevC.02  7-Dec-2021
                 9-Apr-2024 
 ******************************************
 %nprocshared=128
 Will use up to  128 processors via shared memory.
 %mem=30GB
 %chk=bicyclo_metriazole_chelpg.chk
 ----------------------------------------------------------------------
 # wb97xd/genecp scrf=(solvent=toluene,pcm) nosymm pop=(chelpg) scfcyc=
 300
 ----------------------------------------------------------------------
 1/38=1,172=1/1;
 2/12=2,15=1,17=6,18=5,40=1/2;
 3/5=7,11=2,16=1,17=8,25=1,30=1,70=2201,72=13,74=-58/1,2,3;
 4//1;
 5/5=2,7=300,38=5,53=13/2;
 6/7=2,8=2,9=2,10=2,15=8,20=3,28=1/1,2;
 99/5=1,9=1/99;
 -------------------------
 bicyclo_metriazole_chelpg
 -------------------------
 Symbolic Z-matrix:
 Charge =  0 Multiplicity = 1
 C                     2.0722   -0.01476  -0.30897 
 H                     1.1097   -0.25206   0.11428 
 C                     3.32566   0.12276   0.26191 
 N                     2.24264   0.21615  -1.61708 
 N                     3.5386    0.48888  -1.87876 
 N                     4.18455   0.43457  -0.76819 
 C                     1.26474   0.20472  -2.68842 
 H                     0.49589   0.95478  -2.50198 
 H                     1.78982   0.44165  -3.61134 
 H                     0.80934  -0.78243  -2.76965 
 C                     5.22496   0.16047   2.25173 
 C                     2.76252  -0.37314   2.90484 
 C                     5.67045  -1.18495   2.879 
 H                     5.92501   0.39973   1.4458 
 C                     3.22859  -1.716     3.52341 
 H                     1.72633  -0.51077   2.57289 
 C                     4.71101  -1.77336   3.92638 
 H                     6.66704  -1.07173   3.32328 
 H                     5.78445  -1.90974   2.0628 
 H                     2.60558  -1.95689   4.39374 
 H                     3.03715  -2.50637   2.78586 
 H                     4.98465  -2.81839   4.10691 
 H                     4.85196  -1.26709   4.88241 
 B                     3.75511  -0.02491   1.73493 
 C                     2.77375   0.82686   3.88702 
 H                     2.28667   1.67276   3.38453 
 H                     2.15132   0.59409   4.75998 
 C                     5.21436   1.35742   3.23692 
 H                     5.03124   2.26778   2.65185 
 H                     6.21085   1.47842   3.67933 
 C                     4.16646   1.27595   4.35896 
 H                     4.52048   0.60912   5.14646 
 H                     4.07616   2.26098   4.82915 
 
                          Input orientation:                          
 ---------------------------------------------------------------------
 Center     Atomic      Atomic             Coordinates (Angstroms)
 Number     Number       Type             X           Y           Z
 ---------------------------------------------------------------------
      1          6           0        2.072204   -0.014758   -0.308965
      2          1           0        1.109703   -0.252059    0.114277
      3          6           0        3.325656    0.122759    0.261913
      4          7           0        2.242642    0.216152   -1.617077
      5          7           0        3.538600    0.488878   -1.878761
      6          7           0        4.184547    0.434567   -0.768187
      7          6           0        1.264740    0.204715   -2.688423
      8          1           0        0.495888    0.954778   -2.501977
      9          1           0        1.789817    0.441646   -3.611341
     10          1           0        0.809339   -0.782432   -2.769650
     11          6           0        5.224956    0.160473    2.251726
     12          6           0        2.762521   -0.373137    2.904842
     13          6           0        5.670446   -1.184955    2.878996
     14          1           0        5.925010    0.399730    1.445795
     15          6           0        3.228591   -1.715999    3.523405
     16          1           0        1.726331   -0.510768    2.572888
     17          6           0        4.711009   -1.773359    3.926378
     18          1           0        6.667037   -1.071727    3.323277
     19          1           0        5.784452   -1.909739    2.062803
     20          1           0        2.605581   -1.956888    4.393738
     21          1           0        3.037153   -2.506365    2.785858
     22          1           0        4.984654   -2.818387    4.106910
     23          1           0        4.851960   -1.267087    4.882413
     24          5           0        3.755111   -0.024906    1.734929
     25          6           0        2.773745    0.826863    3.887019
     26          1           0        2.286668    1.672756    3.384525
     27          1           0        2.151325    0.594091    4.759977
     28          6           0        5.214361    1.357424    3.236915
     29          1           0        5.031236    2.267775    2.651845
     30          1           0        6.210849    1.478424    3.679331
     31          6           0        4.166463    1.275950    4.358958
     32          1           0        4.520476    0.609124    5.146456
     33          1           0        4.076157    2.260979    4.829152
 ---------------------------------------------------------------------
                    Distance matrix (angstroms):
                    1          2          3          4          5
     1  C    0.000000
     2  H    1.077893   0.000000
     3  C    1.384180   2.252273   0.000000
     4  N    1.339226   2.121405   2.170771   0.000000
     5  N    2.206406   3.228115   2.182172   1.349950   0.000000
     6  N    2.207888   3.271829   1.376962   2.130567   1.285913
     7  C    2.522298   2.843907   3.599802   1.450588   2.430379
     8  H    2.869508   2.945846   4.042144   2.092789   3.140630
     9  H    3.345704   3.850196   4.178826   2.057422   2.462175
    10  H    2.870387   2.947634   4.042474   2.092833   3.139869
    11  C    4.065426   4.655553   2.751021   4.885175   4.473541
    12  C    3.306589   3.245569   2.747382   4.589694   4.922218
    13  C    4.947707   5.414272   3.749304   5.824741   5.475649
    14  H    4.253833   5.038348   2.869657   4.793195   4.093357
    15  C    4.349542   4.272582   3.745368   5.579414   5.843029
    16  H    2.944610   2.547926   2.880938   4.283783   4.909256
    17  C    5.290945   5.460391   4.352329   6.385991   6.339708
    18  H    5.951710   6.469428   4.686531   6.755812   6.267679
    19  H    4.795521   5.328971   3.663322   5.532210   5.131583
    20  H    5.115836   4.843333   4.681391   6.401853   6.796804
    21  H    4.088663   3.991780   3.655930   5.237288   5.566112
    22  H    5.986873   6.127186   5.117286   7.034990   6.989802
    23  H    6.020447   6.145721   5.060662   7.159044   7.107869
    24  B    2.647599   3.110674   1.541432   3.685324   3.656447
    25  C    4.336677   4.262240   3.733867   5.563282   5.826101
    26  H    4.066395   3.972994   3.637677   5.209574   5.538148
    27  H    5.105990   4.835646   4.672664   6.388896   6.782952
    28  C    4.932474   5.402733   3.733931   5.804727   5.452769
    29  H    4.767832   5.307281   3.636189   5.496281   5.091054
    30  H    5.938390   6.459557   4.673426   6.737354   6.245999
    31  C    5.276491   5.449395   4.338500   6.366887   6.318452
    32  H    6.012061   6.139856   5.052020   7.147610   7.094520
    33  H    5.966159   6.111076   5.098520   7.006923   6.958837
                    6          7          8          9         10
     6  N    0.000000
     7  C    3.502201   0.000000
     8  H    4.108875   1.090179   0.000000
     9  H    3.717298   1.087943   1.779957   0.000000
    10  H    4.108402   1.090159   1.785441   1.779929   0.000000
    11  C    3.205847   6.331693   6.752236   6.801088   6.752848
    12  C    4.020657   5.819096   6.011212   6.638574   6.015173
    13  C    4.258250   7.234472   7.765911   7.734959   7.463216
    14  H    2.816406   6.232809   6.735603   6.532703   6.733318
    15  C    4.894543   6.792103   7.134840   7.591449   6.806384
    16  H    4.254323   5.329763   5.423658   6.257460   5.427466
    17  C    5.214503   7.716550   8.156821   8.381934   7.812922
    18  H    5.017146   8.182582   8.724872   8.611997   8.456954
    19  H    4.008737   6.890055   7.550602   7.326802   7.026747
    20  H    5.904038   7.525117   7.776856   8.396411   7.477965
    21  H    4.753612   6.360751   6.811662   7.153375   6.228866
    22  H    5.915104   8.315856   8.835337   8.966950   8.298521
    23  H    5.938884   8.505992   8.856707   9.189143   8.667857
    24  B    2.580915   5.081409   5.434491   5.715125   5.435315
    25  C    4.880082   6.774998   6.784119   7.572444   7.124603
    26  H    4.730758   6.330891   6.194618   7.120719   6.788543
    27  H    5.892371   7.511079   7.456979   8.380507   7.771166
    28  C    4.237101   7.213728   7.440497   7.711340   7.749969
    29  H    3.971669   6.852822   6.989651   7.284850   7.518031
    30  H    4.997595   8.163003   8.434664   8.589198   8.710748
    31  C    5.195755   7.696306   7.787728   8.358838   8.143971
    32  H    5.926746   8.494039   8.649585   9.175160   8.852892
    33  H    5.888780   8.285302   8.262563   8.931923   8.813413
                   11         12         13         14         15
    11  C    0.000000
    12  C    2.602861   0.000000
    13  C    1.549873   3.019229   0.000000
    14  H    1.094004   3.567559   2.151765   0.000000
    15  C    3.020561   1.550200   2.580683   4.007923   0.000000
    16  H    3.576882   1.096734   4.013013   4.441650   2.147755
    17  C    2.609273   2.607827   1.537448   3.514172   1.537283
    18  H    2.178563   3.988529   1.096996   2.498145   3.504005
    19  H    2.152790   3.493171   1.097488   2.394599   2.950139
    20  H    3.991561   2.179383   3.504814   5.026194   1.097109
    21  H    3.490531   2.154122   2.947716   4.310554   1.097863
    22  H    3.517536   3.515976   2.155501   4.280430   2.153949
    23  H    3.016217   3.012588   2.165720   3.967374   2.164198
    24  B    1.569041   1.573276   2.514580   2.229882   2.517075
    25  C    3.021042   1.550741   3.668024   4.009051   2.608687
    26  H    3.493389   2.154579   4.457805   4.314719   3.519967
    27  H    3.990809   2.179591   4.368902   5.026159   2.833042
    28  C    1.550291   3.019376   2.607645   2.151816   3.670325
    29  H    2.153682   3.490772   3.518740   2.396452   4.458655
    30  H    2.178769   3.989872   2.833048   2.496791   4.372930
    31  C    2.608663   2.608638   3.241652   3.513797   3.244921
    32  H    3.012813   3.013316   3.111676   3.963768   3.116000
    33  H    3.517810   3.516700   4.268410   4.281309   4.270796
                   16         17         18         19         20
    16  H    0.000000
    17  C    3.512033   0.000000
    18  H    5.028751   2.163808   0.000000
    19  H    4.322690   2.154946   1.752146   0.000000
    20  H    2.485928   2.164471   4.292414   3.942170   0.000000
    21  H    2.397085   2.154038   3.939932   2.902830   1.753128
    22  H    4.277265   1.095243   2.548591   2.375645   2.546456
    23  H    3.959227   1.090954   2.400745   3.038543   2.400177
    24  B    2.248152   2.961972   3.478217   2.788964   3.481844
    25  C    2.147853   3.242791   4.368086   4.458824   2.834486
    26  H    2.395936   4.248146   5.169485   5.178389   3.780811
    27  H    2.486904   3.584925   5.023018   5.171414   2.616863
    28  C    4.012160   3.245077   2.831696   3.518224   4.373630
    29  H    4.318441   4.249440   3.778748   4.285549   5.173565
    30  H    5.029115   3.589519   2.614986   3.778178   5.030875
    31  C    3.512357   3.127609   3.582889   4.247214   3.590098
    32  H    3.960386   2.683490   3.279781   4.177466   3.289046
    33  H    4.277264   4.182573   4.481880   5.288275   4.488049
                   21         22         23         24         25
    21  H    0.000000
    22  H    2.373878   0.000000
    23  H    3.037248   1.739409   0.000000
    24  B    2.788827   3.865437   3.557070   0.000000
    25  C    3.520277   4.268995   3.113585   2.513977   0.000000
    26  H    4.287969   5.288793   4.179362   2.785597   1.097852
    27  H    3.780829   4.483219   3.282134   3.479397   1.097108
    28  C    4.457864   4.271657   3.118823   2.509225   2.580840
    29  H    5.175591   5.290409   4.183638   2.779499   2.949262
    30  H    5.171961   4.488760   3.291172   3.474385   3.504476
    31  C    4.249222   4.182889   2.685321   2.957527   1.537553
    32  H    4.180782   3.611641   1.923478   3.553350   2.164408
    33  H    5.289816   5.210274   3.612749   3.860383   2.154201
                   26         27         28         29         30
    26  H    0.000000
    27  H    1.753198   0.000000
    28  C    2.948323   3.504937   0.000000
    29  H    2.902330   3.941995   1.097534   0.000000
    30  H    3.940035   4.292968   1.096978   1.752224   0.000000
    31  C    2.154206   2.164839   1.537436   2.155408   2.163886
    32  H    3.037369   2.400514   2.165127   3.038928   2.401145
    33  H    2.373863   2.547210   2.155722   2.377580   2.547821
                   31         32         33
    31  C    0.000000
    32  H    1.090933   0.000000
    33  H    1.095226   1.739749   0.000000
 Symmetry turned off by external request.
 Stoichiometry    C11H18BN3
 Framework group  C1[X(C11H18BN3)]
 Deg. of freedom    93
 Full point group                 C1      NOp   1
 Rotational constants (GHZ):           1.2386796           0.3448951           0.3352322
 General basis read from cards:  (5D, 7F)
 ======================================================================================================
                                       Pseudopotential Parameters
 ======================================================================================================
  Center     Atomic      Valence      Angular      Power
  Number     Number     Electrons     Momentum     of R      Exponent        Coefficient   SO-Coeffient
 ======================================================================================================
    1          6
                                   No pseudopotential on this center.
    2          1
                                   No pseudopotential on this center.
    3          6
                                   No pseudopotential on this center.
    4          7
                                   No pseudopotential on this center.
    5          7
                                   No pseudopotential on this center.
    6          7
                                   No pseudopotential on this center.
    7          6
                                   No pseudopotential on this center.
    8          1
                                   No pseudopotential on this center.
    9          1
                                   No pseudopotential on this center.
   10          1
                                   No pseudopotential on this center.
   11          6
                                   No pseudopotential on this center.
   12          6
                                   No pseudopotential on this center.
   13          6
                                   No pseudopotential on this center.
   14          1
                                   No pseudopotential on this center.
   15          6
                                   No pseudopotential on this center.
   16          1
                                   No pseudopotential on this center.
   17          6
                                   No pseudopotential on this center.
   18          1
                                   No pseudopotential on this center.
   19          1
                                   No pseudopotential on this center.
   20          1
                                   No pseudopotential on this center.
   21          1
                                   No pseudopotential on this center.
   22          1
                                   No pseudopotential on this center.
   23          1
                                   No pseudopotential on this center.
   24          5
                                   No pseudopotential on this center.
   25          6
                                   No pseudopotential on this center.
   26          1
                                   No pseudopotential on this center.
   27          1
                                   No pseudopotential on this center.
   28          6
                                   No pseudopotential on this center.
   29          1
                                   No pseudopotential on this center.
   30          1
                                   No pseudopotential on this center.
   31          6
                                   No pseudopotential on this center.
   32          1
                                   No pseudopotential on this center.
   33          1
                                   No pseudopotential on this center.
 ======================================================================================================
   456 basis functions,   702 primitive gaussians,   471 cartesian basis functions
    55 alpha electrons       55 beta electrons
       nuclear repulsion energy       994.4456910221 Hartrees.
 NAtoms=   33 NActive=   33 NUniq=   33 SFac= 1.00D+00 NAtFMM=   60 NAOKFM=F Big=F
 Integral buffers will be    131072 words long.
 Raffenetti 2 integral format.
 Two-electron integral symmetry is turned off.
 Nuclear repulsion after empirical dispersion term =      994.4177663319 Hartrees.
 ------------------------------------------------------------------------------
 Polarizable Continuum Model (PCM)
 =================================
 Model                : PCM.
 Atomic radii         : UFF (Universal Force Field).
 Polarization charges : Total charges.
 Charge compensation  : None.
 Solution method      : On-the-fly selection.
 Cavity type          : Scaled VdW (van der Waals Surface) (Alpha=1.100).
 Cavity algorithm     : GePol (No added spheres)
                        Default sphere list used, NSphG=   33.
                        Lebedev-Laikov grids with approx.  5.0 points / Ang**2.
                        Smoothing algorithm: York/Karplus (Gamma=1.0000).
                        Polarization charges: spherical gaussians, with
                                              point-specific exponents (IZeta= 3).
                        Self-potential: point-specific (ISelfS= 7).
                        Self-field    : sphere-specific E.n sum rule (ISelfD= 2).
 Solvent              : Toluene, Eps=   2.374100 Eps(inf)=   2.238315
 ------------------------------------------------------------------------------
 One-electron integrals computed using PRISM.
   1 Symmetry operations used in ECPInt.
 ECPInt:  NShTT=   16290 NPrTT=   52005 LenC2=   15241 LenP2D=   35874.
 LDataN:  DoStor=T MaxTD1= 4 Len=   56
 Number of processors reduced to  96 by ecpmxn.
 NBasis=   456 RedAO= T EigKep=  2.13D-06  NBF=   456
 NBsUse=   456 1.00D-06 EigRej= -1.00D+00 NBFU=   456
 ExpMin= 3.15D-02 ExpMax= 6.29D+03 ExpMxC= 9.49D+02 IAcc=3 IRadAn=         5 AccDes= 0.00D+00
 Harris functional with IExCor= 4639 and IRadAn=       5 diagonalized for initial guess.
 HarFok:  IExCor= 4639 AccDes= 0.00D+00 IRadAn=         5 IDoV= 1 UseB2=F ITyADJ=14
 ICtDFT=  3500011 ScaDFX=  1.000000  1.000000  1.000000  1.000000
 FoFCou: FMM=F IPFlag=           0 FMFlag=      100000 FMFlg1=           0
         NFxFlg=           0 DoJE=T BraDBF=F KetDBF=T FulRan=T
         wScrn=  0.000000 ICntrl=       500 IOpCl=  0 I1Cent=   200000004 NGrid=           0
         NMat0=    1 NMatS0=      1 NMatT0=    0 NMatD0=    1 NMtDS0=    0 NMtDT0=    0
 Symmetry not used in FoFCou.
 Requested convergence on RMS density matrix=1.00D-08 within 300 cycles.
 Requested convergence on MAX density matrix=1.00D-06.
 Requested convergence on             energy=1.00D-06.
 No special actions if energy rises.
 Inv3:  Mode=1 IEnd=    14999088.
 Iteration    1 A*A^-1 deviation from unit magnitude is 4.00D-15 for   2224.
 Iteration    1 A*A^-1 deviation from orthogonality  is 2.12D-15 for   2224   1878.
 Iteration    1 A^-1*A deviation from unit magnitude is 4.00D-15 for   2224.
 Iteration    1 A^-1*A deviation from orthogonality  is 2.66D-15 for   2227   1897.
 Error on total polarization charges =  0.01010
 SCF Done:  E(RwB97XD) =  -619.072040467     A.U. after   15 cycles
            NFock= 15  Conv=0.70D-08     -V/T= 2.0045

 **********************************************************************

            Population analysis using the SCF Density.

 **********************************************************************

 Alpha  occ. eigenvalues --  -14.53484 -14.49656 -14.45923 -10.33888 -10.33853
 Alpha  occ. eigenvalues --  -10.29203 -10.27597 -10.27578 -10.27219 -10.27201
 Alpha  occ. eigenvalues --  -10.26940 -10.26932 -10.25781 -10.25011  -6.83006
 Alpha  occ. eigenvalues --   -1.21556  -1.03041  -0.92810  -0.91053  -0.86746
 Alpha  occ. eigenvalues --   -0.85404  -0.84343  -0.78064  -0.76500  -0.73102
 Alpha  occ. eigenvalues --   -0.69413  -0.66917  -0.65552  -0.64363  -0.62300
 Alpha  occ. eigenvalues --   -0.59531  -0.58155  -0.55820  -0.54515  -0.52306
 Alpha  occ. eigenvalues --   -0.51983  -0.51371  -0.50783  -0.50113  -0.50065
 Alpha  occ. eigenvalues --   -0.48970  -0.46936  -0.43939  -0.43511  -0.42545
 Alpha  occ. eigenvalues --   -0.41568  -0.41353  -0.40856  -0.40076  -0.38227
 Alpha  occ. eigenvalues --   -0.36673  -0.36398  -0.35053  -0.34975  -0.33397
 Alpha virt. eigenvalues --    0.02432   0.03477   0.04401   0.04841   0.05356
 Alpha virt. eigenvalues --    0.05756   0.06135   0.07048   0.07485   0.07668
 Alpha virt. eigenvalues --    0.08107   0.08412   0.08746   0.08804   0.09548
 Alpha virt. eigenvalues --    0.10449   0.10521   0.10589   0.10773   0.12017
 Alpha virt. eigenvalues --    0.12084   0.12834   0.13485   0.14311   0.14383
 Alpha virt. eigenvalues --    0.15011   0.15616   0.16104   0.16708   0.17303
 Alpha virt. eigenvalues --    0.17593   0.17719   0.18044   0.18221   0.18265
 Alpha virt. eigenvalues --    0.18452   0.18585   0.19008   0.19247   0.19413
 Alpha virt. eigenvalues --    0.20123   0.20283   0.20450   0.20560   0.20689
 Alpha virt. eigenvalues --    0.21335   0.21909   0.22163   0.22378   0.22498
 Alpha virt. eigenvalues --    0.23140   0.23486   0.23509   0.23755   0.23972
 Alpha virt. eigenvalues --    0.24102   0.24556   0.24902   0.24996   0.25570
 Alpha virt. eigenvalues --    0.25756   0.26190   0.26581   0.26738   0.27129
 Alpha virt. eigenvalues --    0.27748   0.28348   0.28445   0.28918   0.29611
 Alpha virt. eigenvalues --    0.29915   0.30230   0.30751   0.30827   0.31298
 Alpha virt. eigenvalues --    0.31351   0.32079   0.32842   0.33145   0.34274
 Alpha virt. eigenvalues --    0.34437   0.35221   0.35359   0.35409   0.35450
 Alpha virt. eigenvalues --    0.36244   0.36330   0.37369   0.38620   0.38978
 Alpha virt. eigenvalues --    0.39384   0.39546   0.40187   0.40621   0.40754
 Alpha virt. eigenvalues --    0.40898   0.41415   0.42471   0.42624   0.43142
 Alpha virt. eigenvalues --    0.43864   0.44315   0.44514   0.45144   0.45646
 Alpha virt. eigenvalues --    0.45665   0.46576   0.47138   0.47704   0.48601
 Alpha virt. eigenvalues --    0.49440   0.52108   0.52401   0.53451   0.55610
 Alpha virt. eigenvalues --    0.55831   0.56680   0.57977   0.58056   0.58127
 Alpha virt. eigenvalues --    0.58873   0.59183   0.60937   0.61044   0.62801
 Alpha virt. eigenvalues --    0.62871   0.64475   0.65087   0.67556   0.68665
 Alpha virt. eigenvalues --    0.68749   0.69424   0.70107   0.71869   0.71942
 Alpha virt. eigenvalues --    0.72472   0.72997   0.73606   0.74443   0.74839
 Alpha virt. eigenvalues --    0.74885   0.76245   0.76298   0.76749   0.78403
 Alpha virt. eigenvalues --    0.78730   0.79557   0.79622   0.80166   0.80368
 Alpha virt. eigenvalues --    0.82202   0.82591   0.83220   0.84259   0.84343
 Alpha virt. eigenvalues --    0.85745   0.86861   0.87185   0.87391   0.87730
 Alpha virt. eigenvalues --    0.88657   0.88908   0.89610   0.90308   0.91025
 Alpha virt. eigenvalues --    0.92167   0.92841   0.92912   0.93962   0.94920
 Alpha virt. eigenvalues --    0.95866   0.97350   0.97563   0.97902   0.99549
 Alpha virt. eigenvalues --    1.01789   1.02545   1.05318   1.06108   1.06973
 Alpha virt. eigenvalues --    1.08250   1.10080   1.12046   1.12202   1.14080
 Alpha virt. eigenvalues --    1.17103   1.17298   1.19153   1.19701   1.21799
 Alpha virt. eigenvalues --    1.22772   1.25045   1.25707   1.28204   1.29939
 Alpha virt. eigenvalues --    1.31365   1.31974   1.34143   1.36124   1.36913
 Alpha virt. eigenvalues --    1.37291   1.37808   1.42364   1.45175   1.45539
 Alpha virt. eigenvalues --    1.46642   1.47813   1.49995   1.50848   1.56566
 Alpha virt. eigenvalues --    1.56691   1.59051   1.59387   1.60085   1.61387
 Alpha virt. eigenvalues --    1.62530   1.63811   1.64211   1.64347   1.65038
 Alpha virt. eigenvalues --    1.66300   1.67087   1.67960   1.69064   1.69934
 Alpha virt. eigenvalues --    1.72043   1.72651   1.73220   1.73241   1.73659
 Alpha virt. eigenvalues --    1.74261   1.75169   1.75960   1.77227   1.78458
 Alpha virt. eigenvalues --    1.79296   1.79681   1.80422   1.81146   1.81814
 Alpha virt. eigenvalues --    1.83654   1.84156   1.85039   1.85655   1.86016
 Alpha virt. eigenvalues --    1.86656   1.87408   1.88085   1.89683   1.90288
 Alpha virt. eigenvalues --    1.90568   1.92905   1.94221   1.94253   1.96059
 Alpha virt. eigenvalues --    1.97841   1.98351   1.98877   2.02037   2.02310
 Alpha virt. eigenvalues --    2.06170   2.07624   2.09606   2.10808   2.11245
 Alpha virt. eigenvalues --    2.12545   2.14733   2.16950   2.19046   2.19063
 Alpha virt. eigenvalues --    2.19717   2.21131   2.22870   2.24316   2.24622
 Alpha virt. eigenvalues --    2.25908   2.27681   2.30195   2.31173   2.33834
 Alpha virt. eigenvalues --    2.35651   2.37344   2.39240   2.39292   2.41315
 Alpha virt. eigenvalues --    2.41566   2.43103   2.44371   2.44977   2.46021
 Alpha virt. eigenvalues --    2.46157   2.47974   2.50251   2.52142   2.52975
 Alpha virt. eigenvalues --    2.54246   2.54903   2.55429   2.58638   2.60941
 Alpha virt. eigenvalues --    2.63018   2.63584   2.64489   2.65865   2.66788
 Alpha virt. eigenvalues --    2.67858   2.70194   2.72222   2.72411   2.72688
 Alpha virt. eigenvalues --    2.74637   2.76620   2.76795   2.78159   2.78223
 Alpha virt. eigenvalues --    2.79724   2.84272   2.84416   2.84548   2.85451
 Alpha virt. eigenvalues --    2.86257   2.86388   2.89693   2.90839   2.91374
 Alpha virt. eigenvalues --    2.91836   2.94351   2.95186   2.95394   2.97368
 Alpha virt. eigenvalues --    2.97879   2.98920   3.02668   3.03989   3.05234
 Alpha virt. eigenvalues --    3.06422   3.07857   3.08364   3.09830   3.11816
 Alpha virt. eigenvalues --    3.11978   3.14864   3.17010   3.19059   3.20952
 Alpha virt. eigenvalues --    3.25633   3.25904   3.27770   3.30377   3.36079
 Alpha virt. eigenvalues --    3.44882   3.51005   3.52549   3.54792   3.56013
 Alpha virt. eigenvalues --    3.67444   3.73350   3.74454   3.80446   3.83578
 Alpha virt. eigenvalues --    3.83883   3.88593   3.88864   3.91215   3.93898
 Alpha virt. eigenvalues --    3.94364   4.02887   4.04594   4.04700   4.04791
 Alpha virt. eigenvalues --    4.12677   4.13886   4.16594   4.18428   4.22621
 Alpha virt. eigenvalues --    4.23983   4.26460   4.29138   4.36880   4.43175
 Alpha virt. eigenvalues --    4.46555   4.53085   4.76154   4.95675   5.11453
 Alpha virt. eigenvalues --    5.75700  14.94801  23.91264  23.98534  24.05798
 Alpha virt. eigenvalues --   24.06216  24.07774  24.09652  24.09998  24.12602
 Alpha virt. eigenvalues --   24.16956  24.18239  24.26271  35.57598  35.64265
 Alpha virt. eigenvalues --   35.79694
          Condensed to atoms (all electrons):
               1          2          3          4          5          6
     1  C    8.199347   0.341408  -1.739765   0.178667  -0.344055   0.121646
     2  H    0.341408   0.469505   0.081317  -0.115825   0.056334  -0.024116
     3  C   -1.739765   0.081317   8.902591  -0.436268   0.680464   0.001551
     4  N    0.178667  -0.115825  -0.436268   7.162702  -0.291555   0.198224
     5  N   -0.344055   0.056334   0.680464  -0.291555   7.035416  -0.089143
     6  N    0.121646  -0.024116   0.001551   0.198224  -0.089143   6.886116
     7  C   -0.045295  -0.010929  -0.112551   0.090257  -0.004129  -0.003391
     8  H    0.003455  -0.009198   0.000529  -0.020170  -0.026931   0.004022
     9  H   -0.013567  -0.000309   0.009759  -0.098168   0.064511   0.003188
    10  H    0.003015  -0.008977   0.000851  -0.020229  -0.026717   0.003868
    11  C   -0.316174  -0.010818  -0.177145  -0.020635  -0.085201   0.106487
    12  C    0.210666  -0.023366  -0.668076   0.007654   0.002487   0.022836
    13  C   -0.043293  -0.007397   0.494038   0.018253   0.023330  -0.040203
    14  H   -0.002962  -0.003817   0.054387   0.008269  -0.009462   0.038016
    15  C   -0.086341   0.008378   0.620293   0.006007   0.005122  -0.019836
    16  H   -0.038156  -0.002481   0.063434   0.004415  -0.003149  -0.000429
    17  C    0.002333  -0.006120  -0.086821   0.006298  -0.006540   0.011722
    18  H   -0.005244   0.000086   0.019580   0.000333   0.000455  -0.001624
    19  H   -0.001687  -0.002138   0.039283   0.003491  -0.002930   0.006878
    20  H    0.002982  -0.001150   0.010353   0.000968  -0.000415   0.000493
    21  H   -0.012012   0.001379   0.038177  -0.000490   0.001395  -0.001100
    22  H    0.000342  -0.000235  -0.012524   0.000089   0.000343  -0.000279
    23  H   -0.000583  -0.000907  -0.013051   0.000242  -0.000508   0.000942
    24  B   -0.070830  -0.004341  -1.690645  -0.005847  -0.088488  -0.083303
    25  C   -0.079063   0.010685   0.596837   0.003186   0.007090  -0.022430
    26  H   -0.011171   0.001666   0.037307  -0.000776   0.001690  -0.001566
    27  H    0.003371  -0.001218   0.008930   0.000958  -0.000459   0.000550
    28  C   -0.045463  -0.005270   0.469963   0.014808   0.029600  -0.050695
    29  H   -0.000501  -0.001997   0.038884   0.003225  -0.002707   0.006760
    30  H   -0.005142   0.000129   0.018171   0.000258   0.000552  -0.001810
    31  C   -0.001198  -0.007896  -0.055486   0.008370  -0.008456   0.014580
    32  H   -0.000460  -0.000950  -0.011251   0.000306  -0.000570   0.000987
    33  H    0.000308  -0.000280  -0.012244   0.000122   0.000318  -0.000234
               7          8          9         10         11         12
     1  C   -0.045295   0.003455  -0.013567   0.003015  -0.316174   0.210666
     2  H   -0.010929  -0.009198  -0.000309  -0.008977  -0.010818  -0.023366
     3  C   -0.112551   0.000529   0.009759   0.000851  -0.177145  -0.668076
     4  N    0.090257  -0.020170  -0.098168  -0.020229  -0.020635   0.007654
     5  N   -0.004129  -0.026931   0.064511  -0.026717  -0.085201   0.002487
     6  N   -0.003391   0.004022   0.003188   0.003868   0.106487   0.022836
     7  C    5.222076   0.401461   0.408741   0.401373  -0.001594  -0.001457
     8  H    0.401461   0.519552  -0.019818  -0.051270   0.000600  -0.000467
     9  H    0.408741  -0.019818   0.450565  -0.019814   0.001015  -0.000086
    10  H    0.401373  -0.051270  -0.019814   0.519611   0.000578  -0.000459
    11  C   -0.001594   0.000600   0.001015   0.000578   6.924640  -0.456736
    12  C   -0.001457  -0.000467  -0.000086  -0.000459  -0.456736   7.297128
    13  C   -0.000081  -0.000427  -0.000009   0.000386  -0.756946  -0.136685
    14  H    0.000501   0.000031   0.000295   0.000018   0.368244   0.029939
    15  C   -0.002165   0.000010  -0.000075  -0.000227  -0.297887  -1.150330
    16  H    0.000965   0.000566  -0.000198   0.000572   0.028239   0.337333
    17  C    0.001412   0.000398   0.000137  -0.000379   0.323011   0.207115
    18  H    0.000008  -0.000005  -0.000005   0.000010  -0.066545  -0.027210
    19  H    0.000071  -0.000017   0.000084   0.000080  -0.088788  -0.009997
    20  H    0.000065  -0.000003   0.000004   0.000003  -0.014877  -0.079782
    21  H   -0.000525  -0.000123  -0.000027   0.000133  -0.012256  -0.114589
    22  H    0.000048   0.000012  -0.000002  -0.000022   0.040173   0.056233
    23  H    0.000039   0.000005   0.000007   0.000003   0.027936   0.053885
    24  B    0.013610   0.001331   0.002757   0.001412   1.053433   1.221971
    25  C   -0.002216  -0.000193  -0.000082  -0.000048  -0.291404  -1.143532
    26  H   -0.000540   0.000139  -0.000029  -0.000129  -0.012989  -0.113432
    27  H    0.000071   0.000006   0.000004  -0.000004  -0.014493  -0.077205
    28  C   -0.000254   0.000377  -0.000047  -0.000451  -0.777217  -0.131322
    29  H    0.000073   0.000092   0.000087  -0.000024  -0.087675  -0.010748
    30  H    0.000004   0.000010  -0.000006  -0.000005  -0.065915  -0.026583
    31  C    0.001508  -0.000389   0.000147   0.000418   0.318937   0.203996
    32  H    0.000041   0.000004   0.000007   0.000004   0.027486   0.050794
    33  H    0.000051  -0.000023  -0.000002   0.000013   0.039499   0.056613
              13         14         15         16         17         18
     1  C   -0.043293  -0.002962  -0.086341  -0.038156   0.002333  -0.005244
     2  H   -0.007397  -0.003817   0.008378  -0.002481  -0.006120   0.000086
     3  C    0.494038   0.054387   0.620293   0.063434  -0.086821   0.019580
     4  N    0.018253   0.008269   0.006007   0.004415   0.006298   0.000333
     5  N    0.023330  -0.009462   0.005122  -0.003149  -0.006540   0.000455
     6  N   -0.040203   0.038016  -0.019836  -0.000429   0.011722  -0.001624
     7  C   -0.000081   0.000501  -0.002165   0.000965   0.001412   0.000008
     8  H   -0.000427   0.000031   0.000010   0.000566   0.000398  -0.000005
     9  H   -0.000009   0.000295  -0.000075  -0.000198   0.000137  -0.000005
    10  H    0.000386   0.000018  -0.000227   0.000572  -0.000379   0.000010
    11  C   -0.756946   0.368244  -0.297887   0.028239   0.323011  -0.066545
    12  C   -0.136685   0.029939  -1.150330   0.337333   0.207115  -0.027210
    13  C    7.466412   0.036461   1.114423   0.003764  -1.115423   0.494020
    14  H    0.036461   0.499885   0.001107  -0.000468   0.000458  -0.013758
    15  C    1.114423   0.001107   8.056221   0.017567  -1.176907   0.030227
    16  H    0.003764  -0.000468   0.017567   0.556525  -0.002305   0.000837
    17  C   -1.115423   0.000458  -1.176907  -0.002305   7.070113  -0.101757
    18  H    0.494020  -0.013758   0.030227   0.000837  -0.101757   0.518116
    19  H    0.582835   0.010816   0.066449   0.000395  -0.112487  -0.011467
    20  H    0.025965   0.001789   0.519343  -0.013496  -0.109822  -0.000741
    21  H    0.045746  -0.000409   0.577171   0.010058  -0.113549  -0.001201
    22  H   -0.151366  -0.001826  -0.170190  -0.000878   0.515411  -0.002517
    23  H   -0.110341   0.001440  -0.152813   0.002483   0.564200  -0.009599
    24  B   -1.559719  -0.261186  -1.692747  -0.176402   0.268476  -0.020301
    25  C   -0.089740  -0.000022   0.178688   0.015111   0.406591   0.014796
    26  H   -0.002011  -0.000456   0.010529   0.009990   0.010711   0.001717
    27  H    0.010878   0.001804  -0.003055  -0.013602  -0.001007  -0.000460
    28  C    0.022956   0.031159  -0.091027   0.002917   0.409973  -0.007513
    29  H   -0.004332   0.010906  -0.013818   0.000329   0.018919   0.000381
    30  H   -0.009154  -0.014055   0.014367   0.000821   0.005747   0.005683
    31  C    0.436289   0.003259   0.429852  -0.000502  -0.736952   0.005967
    32  H    0.020586   0.001657  -0.001927   0.002433  -0.055690   0.003169
    33  H    0.012334  -0.001781   0.004906  -0.000794  -0.018639  -0.001308
              19         20         21         22         23         24
     1  C   -0.001687   0.002982  -0.012012   0.000342  -0.000583  -0.070830
     2  H   -0.002138  -0.001150   0.001379  -0.000235  -0.000907  -0.004341
     3  C    0.039283   0.010353   0.038177  -0.012524  -0.013051  -1.690645
     4  N    0.003491   0.000968  -0.000490   0.000089   0.000242  -0.005847
     5  N   -0.002930  -0.000415   0.001395   0.000343  -0.000508  -0.088488
     6  N    0.006878   0.000493  -0.001100  -0.000279   0.000942  -0.083303
     7  C    0.000071   0.000065  -0.000525   0.000048   0.000039   0.013610
     8  H   -0.000017  -0.000003  -0.000123   0.000012   0.000005   0.001331
     9  H    0.000084   0.000004  -0.000027  -0.000002   0.000007   0.002757
    10  H    0.000080   0.000003   0.000133  -0.000022   0.000003   0.001412
    11  C   -0.088788  -0.014877  -0.012256   0.040173   0.027936   1.053433
    12  C   -0.009997  -0.079782  -0.114589   0.056233   0.053885   1.221971
    13  C    0.582835   0.025965   0.045746  -0.151366  -0.110341  -1.559719
    14  H    0.010816   0.001789  -0.000409  -0.001826   0.001440  -0.261186
    15  C    0.066449   0.519343   0.577171  -0.170190  -0.152813  -1.692747
    16  H    0.000395  -0.013496   0.010058  -0.000878   0.002483  -0.176402
    17  C   -0.112487  -0.109822  -0.113549   0.515411   0.564200   0.268476
    18  H   -0.011467  -0.000741  -0.001201  -0.002517  -0.009599  -0.020301
    19  H    0.541630  -0.001581   0.017495  -0.022484   0.009380  -0.188807
    20  H   -0.001581   0.521564  -0.015801  -0.002998  -0.010593  -0.021423
    21  H    0.017495  -0.015801   0.543881  -0.022656   0.008173  -0.136930
    22  H   -0.022484  -0.002998  -0.022656   0.508296  -0.026094   0.091425
    23  H    0.009380  -0.010593   0.008173  -0.026094   0.569927   0.007429
    24  B   -0.188807  -0.021423  -0.136930   0.091425   0.007429  10.616536
    25  C   -0.014270  -0.001818   0.010546   0.005314  -0.003792  -1.607275
    26  H   -0.002547  -0.000221  -0.005639   0.001232  -0.005693  -0.131768
    27  H    0.001534   0.006324  -0.000260  -0.001663   0.002806  -0.017538
    28  C   -0.004743   0.009845  -0.002161   0.012760   0.020030  -1.444899
    29  H   -0.007279   0.001540  -0.002612   0.001371  -0.004251  -0.182079
    30  H    0.000233  -0.000476   0.001693  -0.001245   0.003218  -0.013486
    31  C    0.020749   0.000254   0.011495  -0.019640  -0.056861   0.146034
    32  H   -0.003982   0.002915  -0.005528   0.002123  -0.015889   0.001606
    33  H    0.001382  -0.001641   0.001246  -0.000616   0.002309   0.086717
              25         26         27         28         29         30
     1  C   -0.079063  -0.011171   0.003371  -0.045463  -0.000501  -0.005142
     2  H    0.010685   0.001666  -0.001218  -0.005270  -0.001997   0.000129
     3  C    0.596837   0.037307   0.008930   0.469963   0.038884   0.018171
     4  N    0.003186  -0.000776   0.000958   0.014808   0.003225   0.000258
     5  N    0.007090   0.001690  -0.000459   0.029600  -0.002707   0.000552
     6  N   -0.022430  -0.001566   0.000550  -0.050695   0.006760  -0.001810
     7  C   -0.002216  -0.000540   0.000071  -0.000254   0.000073   0.000004
     8  H   -0.000193   0.000139   0.000006   0.000377   0.000092   0.000010
     9  H   -0.000082  -0.000029   0.000004  -0.000047   0.000087  -0.000006
    10  H   -0.000048  -0.000129  -0.000004  -0.000451  -0.000024  -0.000005
    11  C   -0.291404  -0.012989  -0.014493  -0.777217  -0.087675  -0.065915
    12  C   -1.143532  -0.113432  -0.077205  -0.131322  -0.010748  -0.026583
    13  C   -0.089740  -0.002011   0.010878   0.022956  -0.004332  -0.009154
    14  H   -0.000022  -0.000456   0.001804   0.031159   0.010906  -0.014055
    15  C    0.178688   0.010529  -0.003055  -0.091027  -0.013818   0.014367
    16  H    0.015111   0.009990  -0.013602   0.002917   0.000329   0.000821
    17  C    0.406591   0.010711  -0.001007   0.409973   0.018919   0.005747
    18  H    0.014796   0.001717  -0.000460  -0.007513   0.000381   0.005683
    19  H   -0.014270  -0.002547   0.001534  -0.004743  -0.007279   0.000233
    20  H   -0.001818  -0.000221   0.006324   0.009845   0.001540  -0.000476
    21  H    0.010546  -0.005639  -0.000260  -0.002161  -0.002612   0.001693
    22  H    0.005314   0.001232  -0.001663   0.012760   0.001371  -0.001245
    23  H   -0.003792  -0.005693   0.002806   0.020030  -0.004251   0.003218
    24  B   -1.607275  -0.131768  -0.017538  -1.444899  -0.182079  -0.013486
    25  C    8.015311   0.574777   0.514581   1.092104   0.063497   0.028213
    26  H    0.574777   0.542812  -0.016075   0.044080   0.017455  -0.001350
    27  H    0.514581  -0.016075   0.521706   0.023319  -0.001712  -0.000884
    28  C    1.092104   0.044080   0.023319   7.464597   0.575643   0.492591
    29  H    0.063497   0.017455  -0.001712   0.575643   0.541272  -0.011772
    30  H    0.028213  -0.001350  -0.000884   0.492591  -0.011772   0.517468
    31  C   -1.173163  -0.112685  -0.106877  -1.124050  -0.108280  -0.101704
    32  H   -0.147147   0.008182  -0.010260  -0.107899   0.009531  -0.009607
    33  H   -0.167100  -0.022546  -0.002718  -0.147174  -0.022411  -0.002051
              31         32         33
     1  C   -0.001198  -0.000460   0.000308
     2  H   -0.007896  -0.000950  -0.000280
     3  C   -0.055486  -0.011251  -0.012244
     4  N    0.008370   0.000306   0.000122
     5  N   -0.008456  -0.000570   0.000318
     6  N    0.014580   0.000987  -0.000234
     7  C    0.001508   0.000041   0.000051
     8  H   -0.000389   0.000004  -0.000023
     9  H    0.000147   0.000007  -0.000002
    10  H    0.000418   0.000004   0.000013
    11  C    0.318937   0.027486   0.039499
    12  C    0.203996   0.050794   0.056613
    13  C    0.436289   0.020586   0.012334
    14  H    0.003259   0.001657  -0.001781
    15  C    0.429852  -0.001927   0.004906
    16  H   -0.000502   0.002433  -0.000794
    17  C   -0.736952  -0.055690  -0.018639
    18  H    0.005967   0.003169  -0.001308
    19  H    0.020749  -0.003982   0.001382
    20  H    0.000254   0.002915  -0.001641
    21  H    0.011495  -0.005528   0.001246
    22  H   -0.019640   0.002123  -0.000616
    23  H   -0.056861  -0.015889   0.002309
    24  B    0.146034   0.001606   0.086717
    25  C   -1.173163  -0.147147  -0.167100
    26  H   -0.112685   0.008182  -0.022546
    27  H   -0.106877  -0.010260  -0.002718
    28  C   -1.124050  -0.107899  -0.147174
    29  H   -0.108280   0.009531  -0.022411
    30  H   -0.101704  -0.009607  -0.002051
    31  C    7.118972   0.560874   0.511869
    32  H    0.560874   0.568823  -0.026503
    33  H    0.511869  -0.026503   0.507880
 Mulliken charges:
               1
     1  C   -0.204577
     2  H    0.278850
     3  C   -1.170871
     4  N    0.292863
     5  N    0.082309
     6  N   -0.088707
     7  C   -0.357246
     8  H    0.196436
     9  H    0.210933
    10  H    0.196406
    11  C    0.295019
    12  C    0.413410
    13  C   -0.781549
    14  H    0.209761
    15  C   -0.801313
    16  H    0.194103
    17  C   -0.178629
    18  H    0.175868
    19  H    0.172420
    20  H    0.172432
    21  H    0.179280
    22  H    0.202062
    23  H    0.136522
    24  B    0.885275
    25  C   -0.794032
    26  H    0.179337
    27  H    0.172647
    28  C   -0.776537
    29  H    0.172236
    30  H    0.176087
    31  C   -0.179431
    32  H    0.136137
    33  H    0.202499
 Sum of Mulliken charges =  -0.00000
 Mulliken charges with hydrogens summed into heavy atoms:
               1
     1  C    0.074273
     3  C   -1.170871
     4  N    0.292863
     5  N    0.082309
     6  N   -0.088707
     7  C    0.246529
    11  C    0.504780
    12  C    0.607512
    13  C   -0.433261
    15  C   -0.449601
    17  C    0.159956
    24  B    0.885275
    25  C   -0.442048
    28  C   -0.428215
    31  C    0.159205
 Electronic spatial extent (au):  <R**2>=           9645.5928
 Charge=             -0.0000 electrons
 Dipole moment (field-independent basis, Debye):
    X=             -5.3192    Y=             -0.9170    Z=             -0.2114  Tot=              5.4018
 Quadrupole moment (field-independent basis, Debye-Ang):
   XX=           -121.9235   YY=            -91.9954   ZZ=            -88.3381
   XY=             -4.5442   XZ=              9.1380   YZ=              1.2786
 Traceless Quadrupole moment (field-independent basis, Debye-Ang):
   XX=            -21.1712   YY=              8.7570   ZZ=             12.4142
   XY=             -4.5442   XZ=              9.1380   YZ=              1.2786
 Octapole moment (field-independent basis, Debye-Ang**2):
  XXX=          -1143.6932  YYY=              3.6972  ZZZ=           -443.5281  XYY=           -334.3496
  XXY=            -19.9120  XXZ=            -91.9534  XZZ=           -341.2008  YZZ=              0.3454
  YYZ=           -142.7302  XYZ=              6.8692
 Hexadecapole moment (field-independent basis, Debye-Ang**3):
 XXXX=          -9017.1809 YYYY=           -675.3841 ZZZZ=          -4520.8705 XXXY=            -52.4468
 XXXZ=          -1778.0756 YYYX=             37.8515 YYYZ=            124.6029 ZZZX=          -1996.5199
 ZZZY=            118.4146 XXYY=          -1512.5744 XXZZ=          -2211.7043 YYZZ=           -880.6381
 XXYZ=             68.5675 YYXZ=           -664.9320 ZZXY=              6.7672
 N-N= 9.944177663319D+02 E-N=-3.426982022353D+03  KE= 6.163244015416D+02
 Breneman (CHELPG) radii used.
 Generate Potential Derived Charges using the Breneman model, NDens= 1.
 Grid spacing= 0.300 Box extension= 2.800
 NStep X,Y,Z=   41     37     49   Total possible points=       74333
 Number of Points to Fit=   17964

 **********************************************************************

            Electrostatic Properties Using The SCF Density.

 **********************************************************************

       Atomic Center    1 is at   2.072204 -0.014758 -0.308965
       Atomic Center    2 is at   1.109703 -0.252059  0.114277
       Atomic Center    3 is at   3.325656  0.122759  0.261913
       Atomic Center    4 is at   2.242642  0.216152 -1.617077
       Atomic Center    5 is at   3.538600  0.488878 -1.878761
       Atomic Center    6 is at   4.184547  0.434567 -0.768187
       Atomic Center    7 is at   1.264740  0.204715 -2.688423
       Atomic Center    8 is at   0.495888  0.954778 -2.501977
       Atomic Center    9 is at   1.789817  0.441646 -3.611341
       Atomic Center   10 is at   0.809339 -0.782432 -2.769650
       Atomic Center   11 is at   5.224956  0.160473  2.251726
       Atomic Center   12 is at   2.762521 -0.373137  2.904842
       Atomic Center   13 is at   5.670446 -1.184955  2.878996
       Atomic Center   14 is at   5.925010  0.399730  1.445795
       Atomic Center   15 is at   3.228591 -1.715999  3.523405
       Atomic Center   16 is at   1.726331 -0.510768  2.572888
       Atomic Center   17 is at   4.711009 -1.773359  3.926378
       Atomic Center   18 is at   6.667037 -1.071727  3.323277
       Atomic Center   19 is at   5.784452 -1.909739  2.062803
       Atomic Center   20 is at   2.605581 -1.956888  4.393738
       Atomic Center   21 is at   3.037153 -2.506365  2.785858
       Atomic Center   22 is at   4.984654 -2.818387  4.106910
       Atomic Center   23 is at   4.851960 -1.267087  4.882413
       Atomic Center   24 is at   3.755111 -0.024906  1.734929
       Atomic Center   25 is at   2.773745  0.826863  3.887019
       Atomic Center   26 is at   2.286668  1.672756  3.384525
       Atomic Center   27 is at   2.151325  0.594091  4.759977
       Atomic Center   28 is at   5.214361  1.357424  3.236915
       Atomic Center   29 is at   5.031236  2.267775  2.651845
       Atomic Center   30 is at   6.210849  1.478424  3.679331
       Atomic Center   31 is at   4.166463  1.275950  4.358958
       Atomic Center   32 is at   4.520476  0.609124  5.146456
       Atomic Center   33 is at   4.076157  2.260979  4.829152
   17964 points will be used for fitting atomic charges
 Fitting point charges to electrostatic potential
 Charges from ESP fit, RMS=   0.00324 RRMS=   0.17109:
 ESP charges:
               1
     1  C   -0.394699
     2  H    0.195163
     3  C    0.196370
     4  N    0.593510
     5  N   -0.389805
     6  N   -0.270689
     7  C   -0.328899
     8  H    0.127696
     9  H    0.119864
    10  H    0.126896
    11  C    0.199774
    12  C   -0.050465
    13  C    0.066713
    14  H   -0.152454
    15  C    0.112203
    16  H   -0.031655
    17  C   -0.060274
    18  H   -0.031038
    19  H   -0.025104
    20  H   -0.032126
    21  H   -0.042477
    22  H    0.000637
    23  H   -0.000334
    24  B    0.087955
    25  C    0.107346
    26  H   -0.040770
    27  H   -0.029839
    28  C    0.055190
    29  H   -0.020600
    30  H   -0.027389
    31  C   -0.067830
    32  H    0.002461
    33  H    0.004669
 Sum of ESP charges =  -0.00000
 ESP charges with hydrogens summed into heavy atoms:
               1
     1  C   -0.199536
     3  C    0.196370
     4  N    0.593510
     5  N   -0.389805
     6  N   -0.270689
     7  C    0.045557
    11  C    0.047320
    12  C   -0.082120
    13  C    0.010571
    15  C    0.037601
    17  C   -0.059971
    24  B    0.087955
    25  C    0.036737
    28  C    0.007201
    31  C   -0.060701
 Charge=  -0.00000 Dipole=    -5.2489    -0.8958    -0.2501 Tot=     5.3306
 -----------------------------------------------------------------

              Electrostatic Properties (Atomic Units)

 -----------------------------------------------------------------
    Center     Electric         -------- Electric Field --------
               Potential          X             Y             Z
 -----------------------------------------------------------------
    1 Atom    -14.720676
    2 Atom     -1.043298
    3 Atom    -14.776422
    4 Atom    -18.291892
    5 Atom    -18.358356
    6 Atom    -18.396211
    7 Atom    -14.706515
    8 Atom     -1.068236
    9 Atom     -1.072704
   10 Atom     -1.068296
   11 Atom    -14.810320
   12 Atom    -14.796661
   13 Atom    -14.786850
   14 Atom     -1.161030
   15 Atom    -14.779608
   16 Atom     -1.137387
   17 Atom    -14.787207
   18 Atom     -1.142731
   19 Atom     -1.143764
   20 Atom     -1.135116
   21 Atom     -1.135059
   22 Atom     -1.138454
   23 Atom     -1.141441
   24 Atom    -11.487326
   25 Atom    -14.779435
   26 Atom     -1.134952
   27 Atom     -1.134945
   28 Atom    -14.786725
   29 Atom     -1.143708
   30 Atom     -1.142591
   31 Atom    -14.787139
   32 Atom     -1.141388
   33 Atom     -1.138357
 -----------------------------------------------------------------
 Unable to Open any file for archive entry.
 1\1\GINC-IRENE4259\SP\RwB97XD\GenECP\C11H18B1N3\PENASFRA\09-Apr-2024\0
 \\# wb97xd/genecp scrf=(solvent=toluene,pcm) nosymm pop=(chelpg) scfcy
 c=300\\bicyclo_metriazole_chelpg\\0,1\C,0,2.072204,-0.014758,-0.308965
 \H,0,1.109703,-0.252059,0.114277\C,0,3.325656,0.122759,0.261913\N,0,2.
 242642,0.216152,-1.617077\N,0,3.5386,0.488878,-1.878761\N,0,4.184547,0
 .434567,-0.768187\C,0,1.26474,0.204715,-2.688423\H,0,0.495888,0.954778
 ,-2.501977\H,0,1.789817,0.441646,-3.611341\H,0,0.809339,-0.782432,-2.7
 6965\C,0,5.224956,0.160473,2.251726\C,0,2.762521,-0.373137,2.904842\C,
 0,5.670446,-1.184955,2.878996\H,0,5.92501,0.39973,1.445795\C,0,3.22859
 1,-1.715999,3.523405\H,0,1.726331,-0.510768,2.572888\C,0,4.711009,-1.7
 73359,3.926378\H,0,6.667037,-1.071727,3.323277\H,0,5.784452,-1.909739,
 2.062803\H,0,2.605581,-1.956888,4.393738\H,0,3.037153,-2.506365,2.7858
 58\H,0,4.984654,-2.818387,4.10691\H,0,4.85196,-1.267087,4.882413\B,0,3
 .755111,-0.024906,1.734929\C,0,2.773745,0.826863,3.887019\H,0,2.286668
 ,1.672756,3.384525\H,0,2.151325,0.594091,4.759977\C,0,5.214361,1.35742
 4,3.236915\H,0,5.031236,2.267775,2.651845\H,0,6.210849,1.478424,3.6793
 31\C,0,4.166463,1.27595,4.358958\H,0,4.520476,0.609124,5.146456\H,0,4.
 076157,2.260979,4.829152\\Version=AS64L-G16RevC.02\HF=-619.0720405\RMS
 D=7.011e-09\Dipole=-2.0927165,-0.3607814,-0.0831788\Quadrupole=-15.740
 2596,6.5105986,9.229661,-3.3784807,6.7938511,0.9506275\PG=C01 [X(C11H1
 8B1N3)]\\@
 The archive entry for this job was punched.


 THE WORLD IS NOT A HAMBURGER - YOU CAN'T HAVE IT YOUR WAY.
 Job cpu time:       0 days  1 hours  9 minutes  4.4 seconds.
 Elapsed time:       0 days  0 hours  0 minutes 41.9 seconds.
 File lengths (MBytes):  RWF=    195 Int=      0 D2E=      0 Chk=     14 Scr=      1
 Normal termination of Gaussian 16 at Tue Apr  9 17:40:11 2024.
