 Entering Gaussian System, Link 0=/ccc/products/gaussian-16-C.02/system/default/g16/g16
 Input=cf3_naphthalene_chelpg.gjf
 Output=cf3_naphthalene_chelpg.log
 Initial command:
 /ccc/products/gaussian-16-C.02/system/default/g16/l1.exe "/ccc/scratch/cont003/gen7343/penasfra/flp/b-n_flp/cf3_naphthalene/reac/Gau-471230.inp" -scrdir="/ccc/scratch/cont003/gen7343/penasfra/flp/b-n_flp/cf3_naphthalene/reac/"
 Entering Link 1 = /ccc/products/gaussian-16-C.02/system/default/g16/l1.exe PID=    471279.
  
 Copyright (c) 1988-2021, Gaussian, Inc.  All Rights Reserved.
  
 This is part of the Gaussian(R) 16 program.  It is based on
 the Gaussian(R) 09 system (copyright 2009, Gaussian, Inc.),
 the Gaussian(R) 03 system (copyright 2003, Gaussian, Inc.),
 the Gaussian(R) 98 system (copyright 1998, Gaussian, Inc.),
 the Gaussian(R) 94 system (copyright 1995, Gaussian, Inc.),
 the Gaussian 92(TM) system (copyright 1992, Gaussian, Inc.),
 the Gaussian 90(TM) system (copyright 1990, Gaussian, Inc.),
 the Gaussian 88(TM) system (copyright 1988, Gaussian, Inc.),
 the Gaussian 86(TM) system (copyright 1986, Carnegie Mellon
 University), and the Gaussian 82(TM) system (copyright 1983,
 Carnegie Mellon University). Gaussian is a federally registered
 trademark of Gaussian, Inc.
  
 This software contains proprietary and confidential information,
 including trade secrets, belonging to Gaussian, Inc.
  
 This software is provided under written license and may be
 used, copied, transmitted, or stored only in accord with that
 written license.
  
 The following legend is applicable only to US Government
 contracts under FAR:
  
                    RESTRICTED RIGHTS LEGEND
  
 Use, reproduction and disclosure by the US Government is
 subject to restrictions as set forth in subparagraphs (a)
 and (c) of the Commercial Computer Software - Restricted
 Rights clause in FAR 52.227-19.
  
 Gaussian, Inc.
 340 Quinnipiac St., Bldg. 40, Wallingford CT 06492
  
  
 ---------------------------------------------------------------
 Warning -- This program may not be used in any manner that
 competes with the business of Gaussian, Inc. or will provide
 assistance to any competitor of Gaussian, Inc.  The licensee
 of this program is prohibited from giving any competitor of
 Gaussian, Inc. access to this program.  By using this program,
 the user acknowledges that Gaussian, Inc. is engaged in the
 business of creating and licensing software in the field of
 computational chemistry and represents and warrants to the
 licensee that it is not a competitor of Gaussian, Inc. and that
 it will not use this program in any manner prohibited above.
 ---------------------------------------------------------------
  

 Cite this work as:
 Gaussian 16, Revision C.02,
 M. J. Frisch, G. W. Trucks, H. B. Schlegel, G. E. Scuseria, 
 M. A. Robb, J. R. Cheeseman, G. Scalmani, V. Barone, 
 G. A. Petersson, H. Nakatsuji, X. Li, M. Caricato, A. V. Marenich, 
 J. Bloino, B. G. Janesko, R. Gomperts, B. Mennucci, H. P. Hratchian, 
 J. V. Ortiz, A. F. Izmaylov, J. L. Sonnenberg, D. Williams-Young, 
 F. Ding, F. Lipparini, F. Egidi, J. Goings, B. Peng, A. Petrone, 
 T. Henderson, D. Ranasinghe, V. G. Zakrzewski, J. Gao, N. Rega, 
 G. Zheng, W. Liang, M. Hada, M. Ehara, K. Toyota, R. Fukuda, 
 J. Hasegawa, M. Ishida, T. Nakajima, Y. Honda, O. Kitao, H. Nakai, 
 T. Vreven, K. Throssell, J. A. Montgomery, Jr., J. E. Peralta, 
 F. Ogliaro, M. J. Bearpark, J. J. Heyd, E. N. Brothers, K. N. Kudin, 
 V. N. Staroverov, T. A. Keith, R. Kobayashi, J. Normand, 
 K. Raghavachari, A. P. Rendell, J. C. Burant, S. S. Iyengar, 
 J. Tomasi, M. Cossi, J. M. Millam, M. Klene, C. Adamo, R. Cammi, 
 J. W. Ochterski, R. L. Martin, K. Morokuma, O. Farkas, 
 J. B. Foresman, and D. J. Fox, Gaussian, Inc., Wallingford CT, 2019.
 
 ******************************************
 Gaussian 16:  AS64L-G16RevC.02  7-Dec-2021
                11-Apr-2024 
 ******************************************
 %nprocshared=128
 Will use up to  128 processors via shared memory.
 %mem=30GB
 %chk=cf3_naphthalene_chelpg.chk
 ----------------------------------------------------------------------
 # wb97xd/genecp scrf=(solvent=toluene,pcm) nosymm pop=(chelpg) scfcyc=
 300
 ----------------------------------------------------------------------
 1/38=1,172=1/1;
 2/12=2,15=1,17=6,18=5,40=1/2;
 3/5=7,11=2,16=1,17=8,25=1,30=1,70=2201,72=13,74=-58/1,2,3;
 4//1;
 5/5=2,7=300,38=5,53=13/2;
 6/7=2,8=2,9=2,10=2,15=8,20=3,28=1/1,2;
 99/5=1,9=1/99;
 ----------------------
 cf3_naphthalene_chelpg
 ----------------------
 Symbolic Z-matrix:
 Charge =  0 Multiplicity = 1
 C                    -5.35716  -0.8153    0.49221 
 C                    -4.03988  -0.8015    0.1453 
 C                    -3.33727   0.3963   -0.04283 
 C                    -3.978     1.64036   0.074 
 C                    -5.35145   1.62743   0.43437 
 C                    -6.0051    0.4391    0.64843 
 H                    -5.91461  -1.73249   0.63929 
 C                    -1.966     0.22889  -0.33003 
 C                    -3.1771    2.78431  -0.17059 
 H                    -5.88348   2.56607   0.5469 
 H                    -7.05081   0.44734   0.93278 
 C                    -1.84775   2.63497  -0.48722 
 C                    -1.2259    1.36104  -0.55507 
 H                    -3.61735   3.77334  -0.10221 
 H                    -1.24658   3.51851  -0.67261 
 H                    -0.16365   1.30153  -0.76484 
 B                    -1.63771  -1.32392  -0.13721 
 N                    -3.18842  -1.96177  -0.19493 
 C                    -3.42748  -3.13522   0.69248 
 H                    -4.42901  -3.52622   0.51121 
 H                    -2.69175  -3.9016    0.45698 
 H                    -3.3337   -2.83315   1.73104 
 C                    -3.56109  -2.36623  -1.59238 
 H                    -2.96582  -3.22723  -1.88741 
 H                    -4.61988  -2.62401  -1.60386 
 H                    -3.37697  -1.53349  -2.26662 
 C                    -0.64678  -1.99855  -1.24579 
 C                    -1.00339  -1.53452   1.36515 
 F                     0.10863  -0.79255   1.54552 
 F                    -0.64756  -2.81139   1.67375 
 F                    -1.85903  -1.15287   2.35716 
 F                     0.64004  -1.63737  -1.04866 
 F                    -0.65416  -3.36395  -1.24277 
 F                    -0.9255   -1.64441  -2.52802 
 
                          Input orientation:                          
 ---------------------------------------------------------------------
 Center     Atomic      Atomic             Coordinates (Angstroms)
 Number     Number       Type             X           Y           Z
 ---------------------------------------------------------------------
      1          6           0       -5.357162   -0.815304    0.492212
      2          6           0       -4.039878   -0.801504    0.145297
      3          6           0       -3.337273    0.396296   -0.042834
      4          6           0       -3.978001    1.640358    0.074004
      5          6           0       -5.351451    1.627433    0.434369
      6          6           0       -6.005097    0.439096    0.648430
      7          1           0       -5.914611   -1.732488    0.639288
      8          6           0       -1.966000    0.228885   -0.330030
      9          6           0       -3.177095    2.784309   -0.170587
     10          1           0       -5.883478    2.566067    0.546896
     11          1           0       -7.050809    0.447341    0.932775
     12          6           0       -1.847750    2.634965   -0.487222
     13          6           0       -1.225901    1.361036   -0.555071
     14          1           0       -3.617349    3.773337   -0.102213
     15          1           0       -1.246584    3.518510   -0.672611
     16          1           0       -0.163651    1.301534   -0.764836
     17          5           0       -1.637710   -1.323920   -0.137207
     18          7           0       -3.188421   -1.961766   -0.194930
     19          6           0       -3.427482   -3.135217    0.692483
     20          1           0       -4.429011   -3.526223    0.511212
     21          1           0       -2.691745   -3.901596    0.456980
     22          1           0       -3.333697   -2.833146    1.731042
     23          6           0       -3.561086   -2.366233   -1.592380
     24          1           0       -2.965817   -3.227232   -1.887406
     25          1           0       -4.619880   -2.624009   -1.603863
     26          1           0       -3.376966   -1.533493   -2.266618
     27          6           0       -0.646781   -1.998545   -1.245786
     28          6           0       -1.003387   -1.534522    1.365152
     29          9           0        0.108634   -0.792548    1.545516
     30          9           0       -0.647558   -2.811390    1.673746
     31          9           0       -1.859029   -1.152870    2.357161
     32          9           0        0.640041   -1.637366   -1.048659
     33          9           0       -0.654163   -3.363948   -1.242769
     34          9           0       -0.925497   -1.644405   -2.528021
 ---------------------------------------------------------------------
                    Distance matrix (angstroms):
                    1          2          3          4          5
     1  C    0.000000
     2  C    1.362269   0.000000
     3  C    2.415409   1.401346   0.000000
     4  C    2.847325   2.443686   1.404234   0.000000
     5  C    2.443428   2.775522   2.408388   1.419998   0.000000
     6  C    1.420473   2.377881   2.756259   2.425307   1.373033
     7  H    1.083332   2.150670   3.411698   3.930152   3.412947
     8  C    3.642306   2.364024   1.410992   2.490712   3.741861
     9  C    4.260189   3.701653   2.396786   1.417709   2.536170
    10  H    3.422524   3.860140   3.396888   2.170577   1.084781
    11  H    2.157964   3.353422   3.839892   3.406307   2.128108
    12  C    5.017930   4.124903   2.725399   2.417062   3.760369
    13  C    4.785455   3.617397   2.377184   2.836866   4.250897
    14  H    4.943270   4.600974   3.389155   2.170420   2.810682
    15  H    6.085689   5.209029   3.809963   3.397871   4.653118
    16  H    5.747498   4.502915   3.378257   3.920168   5.334564
    17  B    3.806466   2.474498   2.420034   3.782660   4.777976
    18  N    2.547543   1.478831   2.367646   3.697440   4.237578
    19  C    3.024197   2.473996   3.608381   4.846824   5.143065
    20  H    2.865468   2.776583   4.109138   5.204625   5.236122
    21  H    4.078099   3.394875   4.374745   5.702138   6.135528
    22  H    3.114610   2.672237   3.684555   4.813849   5.064529
    23  C    3.158606   2.386868   3.175335   4.359292   4.823120
    24  H    4.147109   3.342102   4.082938   5.344631   5.886396
    25  H    2.865053   2.591812   3.633749   4.627318   4.771200
    26  H    3.471039   2.606261   2.944635   3.989121   4.602757
    27  C    5.158332   3.857606   3.797513   5.106906   6.172889
    28  C    4.498295   3.353452   3.340285   4.538199   5.456187
    29  F    5.566408   4.378452   3.976240   4.978450   6.074824
    30  F    5.249833   4.228904   4.524430   5.785247   6.585273
    31  F    3.978558   3.126004   3.216379   4.183894   4.860476
    32  F    6.246320   4.901616   4.578918   5.773228   6.982568
    33  F    5.623517   4.467204   4.772668   6.150193   7.056287
    34  F    5.426681   4.190045   4.019612   5.184398   6.250580
                    6          7          8          9         10
     6  C    0.000000
     7  H    2.173488   0.000000
     8  C    4.161235   4.514210   0.000000
     9  C    3.764095   5.343346   2.832378   0.000000
    10  H    2.132863   4.299661   4.645218   2.808366   0.000000
    11  H    1.083713   2.475628   5.243823   4.656661   2.449605
    12  C    4.836846   6.073140   2.414107   1.374671   4.166683
    13  C    5.013891   5.742855   1.371188   2.445545   4.935530
    14  H    4.169169   6.011767   3.916886   1.084747   2.648430
    15  H    5.819913   7.147345   3.384753   2.125547   4.888265
    16  H    6.071541   6.652097   2.141984   3.410660   6.003008
    17  B    4.774884   4.365977   1.598799   4.387296   5.798840
    18  N    3.795927   2.860175   2.512273   4.746151   5.321176
    19  C    4.407012   2.855922   3.807709   5.987351   6.209489
    20  H    4.269266   2.332573   4.568911   6.469541   6.263605
    21  H    5.464116   3.889104   4.266962   6.732810   7.212899
    22  H    4.360733   3.010729   3.936324   5.932665   6.087289
    23  C    4.343304   3.304702   3.297342   5.356961   5.856414
    24  H    5.395336   4.160989   3.920433   6.255456   6.928267
    25  H    4.046512   2.739136   4.099358   5.778046   5.758414
    26  H    4.392685   3.863099   2.974420   4.803822   5.568200
    27  C    6.183987   5.601279   2.745977   5.516723   7.174426
    28  C    5.424570   4.968520   2.628663   5.073047   6.426481
    29  F    6.300747   6.163134   2.977433   5.151207   6.941393
    30  F    6.349815   5.475032   3.872555   6.411862   7.589578
    31  F    4.758571   4.442386   3.023522   4.860883   5.770939
    32  F    7.165868   6.769171   3.284931   5.907008   7.922812
    33  F    6.831711   5.820319   3.932233   6.731703   8.106400
    34  F    6.342961   5.910234   3.069695   5.499154   7.194773
                   11         12         13         14         15
    11  H    0.000000
    12  C    5.820130   0.000000
    13  C    6.080960   1.419223   0.000000
    14  H    4.891022   2.139066   3.426850   0.000000
    15  H    6.760057   1.084630   2.160772   2.451697   0.000000
    16  H    7.144542   2.165940   1.084397   4.298478   2.469055
    17  B    5.795159   3.979874   2.748306   5.468293   4.887613
    18  N    4.689729   4.797163   3.875848   5.751868   5.833724
    19  C    5.101074   6.097726   5.159423   6.956702   7.133855
    20  H    4.779200   6.754259   5.939880   7.370120   7.820329
    21  H    6.175846   6.658113   5.555919   7.750744   7.643457
    22  H    5.021528   6.085144   5.221138   6.861990   7.104725
    23  C    5.144976   5.400822   4.519030   6.318076   6.390078
    24  H    6.176007   6.129922   5.084745   7.253921   7.066578
    25  H    4.666598   6.048835   5.338506   6.647259   7.069434
    26  H    5.258987   4.783387   3.991838   5.736277   5.709827
    27  C    7.193056   4.846355   3.478398   6.591408   5.579085
    28  C    6.378561   4.639920   3.481526   6.095845   5.453875
    29  F    7.291804   4.439291   3.291105   6.119254   5.034076
    30  F    7.222880   5.981056   4.765632   7.438570   6.777305
    31  F    5.616416   4.736912   3.898932   5.779942   5.601464
    32  F    8.211045   4.975653   3.565920   6.949593   5.503074
    33  F    7.757319   6.162991   4.808876   7.811669   6.931397
    34  F    7.339752   4.829950   3.607693   6.517863   5.495574
                   16         17         18         19         20
    16  H    0.000000
    17  B    3.075675   0.000000
    18  N    4.485884   1.677762   0.000000
    19  C    5.697467   2.678146   1.490516   0.000000
    20  H    6.567255   3.614132   2.117835   1.090323   0.000000
    21  H    5.912415   2.847536   2.105852   1.088167   1.778184
    22  H    5.777039   2.940151   2.118909   1.085655   1.779903
    23  C    5.067535   2.627417   1.501779   2.414495   2.554206
    24  H    5.442611   2.906830   2.124955   2.622485   2.825544
    25  H    5.997652   3.568564   2.114884   2.637490   2.307372
    26  H    4.540718   2.757412   2.123878   3.365167   3.576886
    27  C    3.369755   1.632791   2.750561   3.575082   4.441408
    28  C    3.644889   1.644324   2.718596   2.981769   4.053515
    29  F    3.130023   2.482666   3.907275   4.326648   5.397498
    30  F    4.805933   2.544115   3.266465   2.965758   4.020181
    31  F    4.318017   2.510002   2.989108   3.026697   3.955394
    32  F    3.060002   2.473286   3.935887   4.671175   5.629944
    33  F    4.715479   2.520188   3.080023   3.389516   4.165604
    34  F    3.516786   2.515144   3.265709   4.342130   5.005276
                   21         22         23         24         25
    21  H    0.000000
    22  H    1.782392   0.000000
    23  C    2.704250   3.363755   0.000000
    24  H    2.454797   3.658388   1.087522   0.000000
    25  H    3.097904   3.580446   1.089782   1.783311   0.000000
    26  H    3.673612   4.203838   1.087177   1.783703   1.781377
    27  C    3.271528   4.096045   2.957786   2.701717   4.037938
    28  C    3.046041   2.692702   3.997570   4.158790   4.804275
    29  F    4.323565   4.006008   5.078358   5.211995   5.969228
    30  F    2.616824   2.686838   4.399362   4.269549   5.153365
    31  F    3.443777   2.321637   4.468570   4.852248   5.047401
    32  F    4.300521   4.994719   4.298412   4.029067   5.380380
    33  F    2.707388   4.037970   3.093196   2.403745   4.050285
    34  F    4.138209   5.035092   2.888389   2.660570   3.932195
                   26         27         28         29         30
    26  H    0.000000
    27  C    2.951657   0.000000
    28  C    4.338621   2.675721   0.000000
    29  F    5.218311   3.133121   1.348943   0.000000
    30  F    4.960762   3.030575   1.360969   2.159628   0.000000
    31  F    4.881428   3.894347   1.364501   2.158772   2.164580
    32  F    4.198876   1.351007   2.921971   2.779542   3.232295
    33  F    3.436930   1.365426   3.204685   3.868913   2.968404
    34  F    2.467860   1.359126   3.895502   4.288215   4.369662
                   31         32         33         34
    31  F    0.000000
    32  F    4.252023   0.000000
    33  F    4.393184   2.166501   0.000000
    34  F    4.997809   2.153943   2.163868   0.000000
 Symmetry turned off by external request.
 Stoichiometry    C14H12BF6N
 Framework group  C1[X(C14H12BF6N)]
 Deg. of freedom    96
 Full point group                 C1      NOp   1
 Rotational constants (GHZ):           0.4396508           0.2652209           0.2401788
 General basis read from cards:  (5D, 7F)
 ======================================================================================================
                                       Pseudopotential Parameters
 ======================================================================================================
  Center     Atomic      Valence      Angular      Power
  Number     Number     Electrons     Momentum     of R      Exponent        Coefficient   SO-Coeffient
 ======================================================================================================
    1          6
                                   No pseudopotential on this center.
    2          6
                                   No pseudopotential on this center.
    3          6
                                   No pseudopotential on this center.
    4          6
                                   No pseudopotential on this center.
    5          6
                                   No pseudopotential on this center.
    6          6
                                   No pseudopotential on this center.
    7          1
                                   No pseudopotential on this center.
    8          6
                                   No pseudopotential on this center.
    9          6
                                   No pseudopotential on this center.
   10          1
                                   No pseudopotential on this center.
   11          1
                                   No pseudopotential on this center.
   12          6
                                   No pseudopotential on this center.
   13          6
                                   No pseudopotential on this center.
   14          1
                                   No pseudopotential on this center.
   15          1
                                   No pseudopotential on this center.
   16          1
                                   No pseudopotential on this center.
   17          5
                                   No pseudopotential on this center.
   18          7
                                   No pseudopotential on this center.
   19          6
                                   No pseudopotential on this center.
   20          1
                                   No pseudopotential on this center.
   21          1
                                   No pseudopotential on this center.
   22          1
                                   No pseudopotential on this center.
   23          6
                                   No pseudopotential on this center.
   24          1
                                   No pseudopotential on this center.
   25          1
                                   No pseudopotential on this center.
   26          1
                                   No pseudopotential on this center.
   27          6
                                   No pseudopotential on this center.
   28          6
                                   No pseudopotential on this center.
   29          9
                                   No pseudopotential on this center.
   30          9
                                   No pseudopotential on this center.
   31          9
                                   No pseudopotential on this center.
   32          9
                                   No pseudopotential on this center.
   33          9
                                   No pseudopotential on this center.
   34          9
                                   No pseudopotential on this center.
 ======================================================================================================
   568 basis functions,   900 primitive gaussians,   590 cartesian basis functions
    81 alpha electrons       81 beta electrons
       nuclear repulsion energy      2041.3593075190 Hartrees.
 NAtoms=   34 NActive=   34 NUniq=   34 SFac= 1.00D+00 NAtFMM=   60 NAOKFM=F Big=F
 Integral buffers will be    131072 words long.
 Raffenetti 2 integral format.
 Two-electron integral symmetry is turned off.
 Nuclear repulsion after empirical dispersion term =     2041.3250002596 Hartrees.
 ------------------------------------------------------------------------------
 Polarizable Continuum Model (PCM)
 =================================
 Model                : PCM.
 Atomic radii         : UFF (Universal Force Field).
 Polarization charges : Total charges.
 Charge compensation  : None.
 Solution method      : On-the-fly selection.
 Cavity type          : Scaled VdW (van der Waals Surface) (Alpha=1.100).
 Cavity algorithm     : GePol (No added spheres)
                        Default sphere list used, NSphG=   34.
                        Lebedev-Laikov grids with approx.  5.0 points / Ang**2.
                        Smoothing algorithm: York/Karplus (Gamma=1.0000).
                        Polarization charges: spherical gaussians, with
                                              point-specific exponents (IZeta= 3).
                        Self-potential: point-specific (ISelfS= 7).
                        Self-field    : sphere-specific E.n sum rule (ISelfD= 2).
 Solvent              : Toluene, Eps=   2.374100 Eps(inf)=   2.238315
 ------------------------------------------------------------------------------
 One-electron integrals computed using PRISM.
   1 Symmetry operations used in ECPInt.
 ECPInt:  NShTT=   18528 NPrTT=   69067 LenC2=   17186 LenP2D=   43105.
 LDataN:  DoStor=T MaxTD1= 4 Len=   56
 Number of processors reduced to  83 by ecpmxn.
 NBasis=   568 RedAO= T EigKep=  2.79D-06  NBF=   568
 NBsUse=   562 1.00D-06 EigRej=  7.89D-07 NBFU=   562
 ExpMin= 3.15D-02 ExpMax= 1.14D+04 ExpMxC= 1.72D+03 IAcc=3 IRadAn=         5 AccDes= 0.00D+00
 Harris functional with IExCor= 4639 and IRadAn=       5 diagonalized for initial guess.
 HarFok:  IExCor= 4639 AccDes= 0.00D+00 IRadAn=         5 IDoV= 1 UseB2=F ITyADJ=14
 ICtDFT=  3500011 ScaDFX=  1.000000  1.000000  1.000000  1.000000
 FoFCou: FMM=F IPFlag=           0 FMFlag=      100000 FMFlg1=           0
         NFxFlg=           0 DoJE=T BraDBF=F KetDBF=T FulRan=T
         wScrn=  0.000000 ICntrl=       500 IOpCl=  0 I1Cent=   200000004 NGrid=           0
         NMat0=    1 NMatS0=      1 NMatT0=    0 NMatD0=    1 NMtDS0=    0 NMtDT0=    0
 Symmetry not used in FoFCou.
 Requested convergence on RMS density matrix=1.00D-08 within 300 cycles.
 Requested convergence on MAX density matrix=1.00D-06.
 Requested convergence on             energy=1.00D-06.
 No special actions if energy rises.
 Inv3:  Mode=1 IEnd=    17598252.
 Iteration    1 A*A^-1 deviation from unit magnitude is 5.77D-15 for   2415.
 Iteration    1 A*A^-1 deviation from orthogonality  is 1.89D-15 for   2408    647.
 Iteration    1 A^-1*A deviation from unit magnitude is 6.00D-15 for   2415.
 Iteration    1 A^-1*A deviation from orthogonality  is 1.49D-15 for   2340   1888.
 Error on total polarization charges =  0.00896
 SCF Done:  E(RwB97XD) =  -1219.42650861     A.U. after   15 cycles
            NFock= 15  Conv=0.72D-08     -V/T= 2.0033

 **********************************************************************

            Population analysis using the SCF Density.

 **********************************************************************

 Alpha  occ. eigenvalues --  -24.83202 -24.83059 -24.83051 -24.82891 -24.82801
 Alpha  occ. eigenvalues --  -24.82669 -14.55120 -10.50916 -10.50633 -10.35126
 Alpha  occ. eigenvalues --  -10.34204 -10.34101 -10.31694 -10.31339 -10.31025
 Alpha  occ. eigenvalues --  -10.30744 -10.30629 -10.30017 -10.29945 -10.29699
 Alpha  occ. eigenvalues --  -10.28562  -6.86458  -1.41067  -1.40633  -1.32158
 Alpha  occ. eigenvalues --   -1.31982  -1.31699  -1.31659  -1.11506  -0.99790
 Alpha  occ. eigenvalues --   -0.94254  -0.90118  -0.86364  -0.85210  -0.84278
 Alpha  occ. eigenvalues --   -0.81478  -0.79374  -0.78991  -0.74282  -0.72731
 Alpha  occ. eigenvalues --   -0.70833  -0.69862  -0.67904  -0.67458  -0.67138
 Alpha  occ. eigenvalues --   -0.67021  -0.64596  -0.63018  -0.62358  -0.61999
 Alpha  occ. eigenvalues --   -0.59700  -0.58611  -0.58277  -0.56186  -0.55777
 Alpha  occ. eigenvalues --   -0.55374  -0.55130  -0.54384  -0.53496  -0.52667
 Alpha  occ. eigenvalues --   -0.52243  -0.51878  -0.51281  -0.50957  -0.50791
 Alpha  occ. eigenvalues --   -0.50559  -0.50319  -0.49813  -0.49354  -0.49097
 Alpha  occ. eigenvalues --   -0.48481  -0.48248  -0.46408  -0.44372  -0.43507
 Alpha  occ. eigenvalues --   -0.43311  -0.41643  -0.39999  -0.38021  -0.33602
 Alpha  occ. eigenvalues --   -0.30352
 Alpha virt. eigenvalues --    0.00120   0.02999   0.03459   0.04458   0.05041
 Alpha virt. eigenvalues --    0.05759   0.06202   0.06652   0.06767   0.07370
 Alpha virt. eigenvalues --    0.08220   0.08504   0.08602   0.09231   0.09759
 Alpha virt. eigenvalues --    0.10319   0.10771   0.11339   0.12263   0.12408
 Alpha virt. eigenvalues --    0.13054   0.13513   0.13854   0.14267   0.14947
 Alpha virt. eigenvalues --    0.15403   0.15433   0.15644   0.16012   0.16413
 Alpha virt. eigenvalues --    0.16794   0.17003   0.17263   0.17312   0.17550
 Alpha virt. eigenvalues --    0.17879   0.18062   0.18317   0.18537   0.19025
 Alpha virt. eigenvalues --    0.19356   0.19741   0.20352   0.20473   0.20795
 Alpha virt. eigenvalues --    0.21466   0.21648   0.21980   0.22141   0.22214
 Alpha virt. eigenvalues --    0.22441   0.22543   0.22820   0.23234   0.23810
 Alpha virt. eigenvalues --    0.23875   0.24030   0.24514   0.24705   0.25056
 Alpha virt. eigenvalues --    0.25466   0.25706   0.26356   0.27046   0.27448
 Alpha virt. eigenvalues --    0.27844   0.28084   0.28889   0.29377   0.29449
 Alpha virt. eigenvalues --    0.29721   0.30152   0.30273   0.30549   0.31072
 Alpha virt. eigenvalues --    0.31707   0.31852   0.32048   0.32681   0.33076
 Alpha virt. eigenvalues --    0.33314   0.33432   0.33592   0.34264   0.34844
 Alpha virt. eigenvalues --    0.35172   0.35887   0.36641   0.36768   0.37309
 Alpha virt. eigenvalues --    0.37415   0.38137   0.38386   0.39538   0.39922
 Alpha virt. eigenvalues --    0.40230   0.40758   0.41237   0.41574   0.42396
 Alpha virt. eigenvalues --    0.42700   0.43340   0.43534   0.43699   0.44305
 Alpha virt. eigenvalues --    0.44748   0.45466   0.46157   0.47186   0.47397
 Alpha virt. eigenvalues --    0.48000   0.48512   0.48877   0.49529   0.49654
 Alpha virt. eigenvalues --    0.49894   0.50290   0.51108   0.51423   0.51697
 Alpha virt. eigenvalues --    0.52746   0.53704   0.53880   0.54469   0.55881
 Alpha virt. eigenvalues --    0.56324   0.57112   0.57413   0.57594   0.58113
 Alpha virt. eigenvalues --    0.58658   0.60528   0.61142   0.61735   0.61816
 Alpha virt. eigenvalues --    0.62583   0.63568   0.63943   0.64773   0.65025
 Alpha virt. eigenvalues --    0.65626   0.66004   0.66802   0.67586   0.67956
 Alpha virt. eigenvalues --    0.68604   0.68923   0.69239   0.70633   0.71186
 Alpha virt. eigenvalues --    0.71651   0.72440   0.72789   0.73618   0.74049
 Alpha virt. eigenvalues --    0.74926   0.75719   0.75961   0.76141   0.77040
 Alpha virt. eigenvalues --    0.77444   0.78741   0.80178   0.80338   0.81111
 Alpha virt. eigenvalues --    0.81782   0.82401   0.82788   0.83528   0.84356
 Alpha virt. eigenvalues --    0.85028   0.85785   0.87104   0.87213   0.87438
 Alpha virt. eigenvalues --    0.88299   0.89870   0.90455   0.91576   0.92308
 Alpha virt. eigenvalues --    0.93692   0.94131   0.94795   0.95313   0.96114
 Alpha virt. eigenvalues --    0.97080   0.97864   0.99372   1.00283   1.01201
 Alpha virt. eigenvalues --    1.01515   1.02376   1.03988   1.04839   1.05204
 Alpha virt. eigenvalues --    1.06802   1.08351   1.09289   1.09424   1.10585
 Alpha virt. eigenvalues --    1.11656   1.12196   1.13799   1.15242   1.16435
 Alpha virt. eigenvalues --    1.17721   1.17991   1.18716   1.19820   1.20033
 Alpha virt. eigenvalues --    1.21241   1.21907   1.22316   1.25329   1.27181
 Alpha virt. eigenvalues --    1.28695   1.31144   1.32312   1.33672   1.33849
 Alpha virt. eigenvalues --    1.36137   1.39489   1.40464   1.41908   1.45175
 Alpha virt. eigenvalues --    1.45774   1.46366   1.46660   1.49410   1.50702
 Alpha virt. eigenvalues --    1.51432   1.52232   1.52856   1.53968   1.54488
 Alpha virt. eigenvalues --    1.55613   1.56338   1.56820   1.58014   1.58235
 Alpha virt. eigenvalues --    1.59394   1.59692   1.60547   1.61049   1.61719
 Alpha virt. eigenvalues --    1.62025   1.62863   1.63744   1.64252   1.64649
 Alpha virt. eigenvalues --    1.65325   1.66208   1.66492   1.67327   1.67940
 Alpha virt. eigenvalues --    1.68237   1.68665   1.69669   1.70496   1.70890
 Alpha virt. eigenvalues --    1.71666   1.73080   1.73628   1.74441   1.74641
 Alpha virt. eigenvalues --    1.75726   1.76249   1.78000   1.78735   1.79306
 Alpha virt. eigenvalues --    1.80575   1.81587   1.82736   1.82867   1.83930
 Alpha virt. eigenvalues --    1.84113   1.86047   1.86569   1.90161   1.91769
 Alpha virt. eigenvalues --    1.93984   1.94296   1.95259   1.95602   1.96615
 Alpha virt. eigenvalues --    1.97382   1.97985   1.98552   1.99457   1.99907
 Alpha virt. eigenvalues --    2.01553   2.01981   2.02494   2.04228   2.04527
 Alpha virt. eigenvalues --    2.05450   2.05775   2.06360   2.08543   2.08771
 Alpha virt. eigenvalues --    2.09723   2.10543   2.12536   2.14305   2.17162
 Alpha virt. eigenvalues --    2.17695   2.18581   2.20196   2.21417   2.21928
 Alpha virt. eigenvalues --    2.23390   2.24856   2.26304   2.26969   2.27211
 Alpha virt. eigenvalues --    2.28416   2.30809   2.32969   2.34449   2.35826
 Alpha virt. eigenvalues --    2.39463   2.40094   2.42863   2.44325   2.44912
 Alpha virt. eigenvalues --    2.50220   2.52819   2.53793   2.55211   2.55958
 Alpha virt. eigenvalues --    2.58805   2.59090   2.60139   2.60945   2.63082
 Alpha virt. eigenvalues --    2.64768   2.65688   2.68063   2.69251   2.71545
 Alpha virt. eigenvalues --    2.72524   2.75387   2.78425   2.78910   2.80224
 Alpha virt. eigenvalues --    2.80612   2.81126   2.82101   2.82413   2.83345
 Alpha virt. eigenvalues --    2.84316   2.84423   2.85838   2.86592   2.87524
 Alpha virt. eigenvalues --    2.88278   2.91451   2.92903   2.94493   2.94956
 Alpha virt. eigenvalues --    2.96860   2.97434   2.99333   2.99767   3.02126
 Alpha virt. eigenvalues --    3.02691   3.05726   3.06803   3.07466   3.08867
 Alpha virt. eigenvalues --    3.11610   3.11739   3.13320   3.17537   3.19746
 Alpha virt. eigenvalues --    3.23701   3.25443   3.30846   3.34936   3.35627
 Alpha virt. eigenvalues --    3.37790   3.42765   3.45551   3.49178   3.50556
 Alpha virt. eigenvalues --    3.52394   3.58188   3.62449   3.63181   3.66303
 Alpha virt. eigenvalues --    3.69839   3.72942   3.75588   3.81786   3.82103
 Alpha virt. eigenvalues --    3.82771   3.83725   3.85040   3.85218   3.86209
 Alpha virt. eigenvalues --    3.87035   3.87440   3.88054   3.88531   3.89020
 Alpha virt. eigenvalues --    3.90620   3.91601   3.91848   3.92092   3.92848
 Alpha virt. eigenvalues --    3.94778   3.95187   3.96404   3.98688   4.00281
 Alpha virt. eigenvalues --    4.01415   4.02319   4.05619   4.12268   4.13943
 Alpha virt. eigenvalues --    4.16424   4.21614   4.23020   4.24252   4.26351
 Alpha virt. eigenvalues --    4.27478   4.28469   4.29902   4.30899   4.48245
 Alpha virt. eigenvalues --    4.53946   4.64095   4.66831   4.80869   4.91617
 Alpha virt. eigenvalues --    4.95254   4.96280   5.03103   5.04724   5.04973
 Alpha virt. eigenvalues --    5.06737   6.46716   6.49048   6.51607   6.51912
 Alpha virt. eigenvalues --    6.53279   6.54652   6.55231   6.56144   6.57646
 Alpha virt. eigenvalues --    6.59700   6.60004   6.61637   6.64308   6.65810
 Alpha virt. eigenvalues --    6.87309   6.87786   6.88784   6.91843  14.82260
 Alpha virt. eigenvalues --   23.68670  23.69169  23.74943  23.97146  24.05581
 Alpha virt. eigenvalues --   24.08742  24.09920  24.11725  24.12683  24.20816
 Alpha virt. eigenvalues --   24.26003  24.27503  24.31875  24.32484  35.67424
 Alpha virt. eigenvalues --   66.93707  66.94984  66.96282  66.96760  67.00475
 Alpha virt. eigenvalues --   67.01872
          Condensed to atoms (all electrons):
               1          2          3          4          5          6
     1  C    7.793098  -1.666269   0.632229  -0.248157  -1.555928   1.032569
     2  C   -1.666269  12.534731  -0.006002   0.345200   0.814502  -1.475847
     3  C    0.632229  -0.006002   6.721627   1.389485  -1.301213   0.570577
     4  C   -0.248157   0.345200   1.389485  10.181599  -1.909322  -0.390672
     5  C   -1.555928   0.814502  -1.301213  -1.909322   8.719173   0.185528
     6  C    1.032569  -1.475847   0.570577  -0.390672   0.185528   7.537064
     7  H    0.441888  -0.049356   0.005137   0.004374  -0.004252  -0.061009
     8  C   -0.111759  -0.314042  -0.215743  -0.081572   0.216881  -0.456080
     9  C   -0.867695   0.595910  -1.250927  -1.918879   2.112673  -0.810579
    10  H   -0.006188   0.003725  -0.000348  -0.064111   0.411935  -0.090987
    11  H   -0.042953   0.013898   0.005893  -0.000773  -0.036196   0.417776
    12  C    0.243372  -0.388023   0.301846  -0.443245  -0.572440  -0.071593
    13  C    0.408054  -0.302353   0.008187  -0.427359  -0.739665   0.159639
    14  H   -0.006587  -0.000490   0.010581  -0.103991   0.059216   0.024485
    15  H    0.003444  -0.003186   0.010523  -0.006912  -0.007474   0.000567
    16  H    0.010021   0.023115   0.017113   0.027597  -0.031645   0.009562
    17  B   -0.114703  -0.039848  -0.049840   0.099593   0.147082   0.155768
    18  N    0.070976  -2.006159  -0.580600  -0.280633  -0.036837  -0.111298
    19  C    0.083890  -1.000385  -0.039741  -0.144035  -0.054856  -0.038680
    20  H    0.056455  -0.164401   0.003750  -0.002161  -0.006015   0.036113
    21  H    0.000159   0.010772  -0.009451  -0.011913   0.002515  -0.015037
    22  H   -0.064763   0.074700   0.001933   0.009087   0.011180  -0.019959
    23  C    0.061856  -0.885721  -0.177041  -0.134964  -0.036416  -0.081260
    24  H    0.015627   0.040209   0.014750  -0.000048   0.001015   0.020306
    25  H   -0.015157  -0.120376  -0.046567   0.011816   0.013202  -0.022310
    26  H    0.044977  -0.039112   0.025121  -0.023424  -0.021518   0.001054
    27  C    0.055115  -0.089622   0.086297  -0.143053  -0.027642   0.005417
    28  C    0.096518   0.162663  -0.075776  -0.030822  -0.056568  -0.004771
    29  F   -0.004764  -0.023511  -0.001241  -0.006564   0.001400  -0.002761
    30  F    0.001287  -0.056670   0.011428  -0.004162   0.001693  -0.001755
    31  F   -0.020681   0.027688   0.044898  -0.012713   0.008593  -0.005456
    32  F   -0.000966  -0.025804   0.001567   0.002832   0.001067  -0.000573
    33  F   -0.000572  -0.026586   0.000621   0.004312   0.000381  -0.000049
    34  F   -0.009021  -0.009612   0.000672   0.027472   0.001551  -0.001099
               7          8          9         10         11         12
     1  C    0.441888  -0.111759  -0.867695  -0.006188  -0.042953   0.243372
     2  C   -0.049356  -0.314042   0.595910   0.003725   0.013898  -0.388023
     3  C    0.005137  -0.215743  -1.250927  -0.000348   0.005893   0.301846
     4  C    0.004374  -0.081572  -1.918879  -0.064111  -0.000773  -0.443245
     5  C   -0.004252   0.216881   2.112673   0.411935  -0.036196  -0.572440
     6  C   -0.061009  -0.456080  -0.810579  -0.090987   0.417776  -0.071593
     7  H    0.487263   0.002333  -0.018820   0.003048  -0.011115   0.003712
     8  C    0.002333  10.331050   0.451178   0.010581  -0.009481  -2.837330
     9  C   -0.018820   0.451178   8.669274   0.072966  -0.013067   0.717593
    10  H    0.003048   0.010581   0.072966   0.453732  -0.011764   0.019890
    11  H   -0.011115  -0.009481  -0.013067  -0.011764   0.443141   0.001713
    12  C    0.003712  -2.837330   0.717593   0.019890   0.001713   9.151397
    13  C    0.007758  -0.699322  -1.969283  -0.004288   0.004350  -0.334057
    14  H   -0.000549  -0.011414   0.377319  -0.001843   0.001140  -0.038886
    15  H   -0.000011  -0.007938  -0.013003   0.000423  -0.000045   0.436139
    16  H   -0.000111  -0.064873  -0.081845  -0.000207   0.000217  -0.059599
    17  B   -0.038312   0.608963   0.283904  -0.006440  -0.000159  -0.132417
    18  N    0.016468   0.024199   0.088976  -0.000832  -0.008488   0.081496
    19  C   -0.013386   0.100005   0.003321  -0.002835   0.003126   0.013402
    20  H   -0.026799   0.020351   0.001064  -0.000759   0.004004  -0.004185
    21  H    0.008883  -0.036116   0.000650   0.000111  -0.000707   0.006657
    22  H    0.003020  -0.020204   0.008724   0.000102  -0.000832  -0.007444
    23  C    0.014468  -0.019322   0.020994   0.000854  -0.004089   0.058949
    24  H   -0.000604  -0.004251   0.000923  -0.000105   0.000166  -0.013391
    25  H   -0.007261   0.034801   0.014624   0.000108  -0.001956   0.002298
    26  H    0.001676  -0.020937  -0.028304   0.000345   0.000743   0.029539
    27  C    0.000046  -0.620183  -0.047569   0.000636   0.000480  -0.057863
    28  C    0.018365  -0.653084  -0.098605   0.001949  -0.000555   0.181237
    29  F   -0.000338   0.061533   0.011214   0.000051  -0.000024  -0.008966
    30  F   -0.000946   0.015423   0.002626   0.000010  -0.000045  -0.002624
    31  F   -0.000161   0.002063   0.008707  -0.000086  -0.000252  -0.007282
    32  F    0.000006   0.007410   0.005350  -0.000004  -0.000011   0.041745
    33  F   -0.000323   0.040840   0.000693  -0.000009  -0.000002  -0.001576
    34  F   -0.000071   0.262679   0.000146  -0.000041   0.000003  -0.049960
              13         14         15         16         17         18
     1  C    0.408054  -0.006587   0.003444   0.010021  -0.114703   0.070976
     2  C   -0.302353  -0.000490  -0.003186   0.023115  -0.039848  -2.006159
     3  C    0.008187   0.010581   0.010523   0.017113  -0.049840  -0.580600
     4  C   -0.427359  -0.103991  -0.006912   0.027597   0.099593  -0.280633
     5  C   -0.739665   0.059216  -0.007474  -0.031645   0.147082  -0.036837
     6  C    0.159639   0.024485   0.000567   0.009562   0.155768  -0.111298
     7  H    0.007758  -0.000549  -0.000011  -0.000111  -0.038312   0.016468
     8  C   -0.699322  -0.011414  -0.007938  -0.064873   0.608963   0.024199
     9  C   -1.969283   0.377319  -0.013003  -0.081845   0.283904   0.088976
    10  H   -0.004288  -0.001843   0.000423  -0.000207  -0.006440  -0.000832
    11  H    0.004350   0.001140  -0.000045   0.000217  -0.000159  -0.008488
    12  C   -0.334057  -0.038886   0.436139  -0.059599  -0.132417   0.081496
    13  C    9.632410   0.038346  -0.080317   0.500532  -0.401398  -0.003831
    14  H    0.038346   0.452803  -0.008106   0.002568   0.000352  -0.001786
    15  H   -0.080317  -0.008106   0.453436  -0.008156  -0.015240   0.000603
    16  H    0.500532   0.002568  -0.008156   0.485032  -0.087437  -0.020369
    17  B   -0.401398   0.000352  -0.015240  -0.087437   8.142826  -0.434128
    18  N   -0.003831  -0.001786   0.000603  -0.020369  -0.434128   9.056503
    19  C   -0.000414   0.000555   0.000620  -0.010277  -0.528943   0.572869
    20  H   -0.005305   0.000182  -0.000026   0.000484   0.065699  -0.024144
    21  H    0.013359  -0.000085   0.000025  -0.002494  -0.202092  -0.016601
    22  H   -0.015228  -0.000058  -0.000062   0.000259  -0.064002  -0.009151
    23  C    0.065208  -0.000736   0.001259  -0.015323  -0.501279   0.715968
    24  H   -0.019344   0.000043  -0.000053  -0.000841  -0.018658  -0.001663
    25  H   -0.006304   0.000089   0.000031  -0.000757   0.001609   0.031433
    26  H    0.046912  -0.000334   0.000721   0.001295  -0.157424  -0.050979
    27  C    0.195250  -0.000822  -0.000621   0.039846  -0.882465  -0.035102
    28  C    0.299375   0.000107   0.003420   0.019399  -1.070227  -0.038166
    29  F   -0.021732  -0.000103  -0.000390  -0.010995  -0.023061   0.013383
    30  F   -0.001307   0.000002  -0.000098   0.001105   0.039760  -0.030162
    31  F   -0.019780   0.000083  -0.000123  -0.001977   0.009592   0.028713
    32  F   -0.004702  -0.000038   0.000374  -0.002232  -0.048847   0.023994
    33  F   -0.011788   0.000007  -0.000043   0.001022   0.038397   0.064874
    34  F   -0.134850   0.000046  -0.000132   0.000476   0.015370  -0.047191
              19         20         21         22         23         24
     1  C    0.083890   0.056455   0.000159  -0.064763   0.061856   0.015627
     2  C   -1.000385  -0.164401   0.010772   0.074700  -0.885721   0.040209
     3  C   -0.039741   0.003750  -0.009451   0.001933  -0.177041   0.014750
     4  C   -0.144035  -0.002161  -0.011913   0.009087  -0.134964  -0.000048
     5  C   -0.054856  -0.006015   0.002515   0.011180  -0.036416   0.001015
     6  C   -0.038680   0.036113  -0.015037  -0.019959  -0.081260   0.020306
     7  H   -0.013386  -0.026799   0.008883   0.003020   0.014468  -0.000604
     8  C    0.100005   0.020351  -0.036116  -0.020204  -0.019322  -0.004251
     9  C    0.003321   0.001064   0.000650   0.008724   0.020994   0.000923
    10  H   -0.002835  -0.000759   0.000111   0.000102   0.000854  -0.000105
    11  H    0.003126   0.004004  -0.000707  -0.000832  -0.004089   0.000166
    12  C    0.013402  -0.004185   0.006657  -0.007444   0.058949  -0.013391
    13  C   -0.000414  -0.005305   0.013359  -0.015228   0.065208  -0.019344
    14  H    0.000555   0.000182  -0.000085  -0.000058  -0.000736   0.000043
    15  H    0.000620  -0.000026   0.000025  -0.000062   0.001259  -0.000053
    16  H   -0.010277   0.000484  -0.002494   0.000259  -0.015323  -0.000841
    17  B   -0.528943   0.065699  -0.202092  -0.064002  -0.501279  -0.018658
    18  N    0.572869  -0.024144  -0.016601  -0.009151   0.715968  -0.001663
    19  C    6.248839   0.441436   0.391257   0.371805  -0.175909  -0.016353
    20  H    0.441436   0.598047  -0.058595  -0.040450  -0.028147   0.008182
    21  H    0.391257  -0.058595   0.482400  -0.002185   0.038091  -0.023155
    22  H    0.371805  -0.040450  -0.002185   0.448190   0.001741  -0.002424
    23  C   -0.175909  -0.028147   0.038091   0.001741   6.348962   0.317233
    24  H   -0.016353   0.008182  -0.023155  -0.002424   0.317233   0.469012
    25  H   -0.014073  -0.006732   0.008646   0.001670   0.477866  -0.031162
    26  H    0.035917   0.001385   0.004556  -0.001213   0.386595  -0.016508
    27  C    0.212168   0.008204   0.053401   0.022194  -0.137421   0.014583
    28  C   -0.116703  -0.075216   0.114924   0.034253   0.111107  -0.010301
    29  F    0.026717   0.002538  -0.002433   0.001042   0.004821   0.000141
    30  F    0.052272   0.012314  -0.013024  -0.023841  -0.003104  -0.001665
    31  F   -0.044486   0.001869  -0.002605   0.016821  -0.003962   0.000509
    32  F   -0.001357   0.000064   0.000254   0.000290   0.032629   0.002206
    33  F   -0.009168   0.003609  -0.018866  -0.000653  -0.027340   0.011923
    34  F   -0.002486  -0.000247  -0.000027   0.000269   0.035638  -0.020202
              25         26         27         28         29         30
     1  C   -0.015157   0.044977   0.055115   0.096518  -0.004764   0.001287
     2  C   -0.120376  -0.039112  -0.089622   0.162663  -0.023511  -0.056670
     3  C   -0.046567   0.025121   0.086297  -0.075776  -0.001241   0.011428
     4  C    0.011816  -0.023424  -0.143053  -0.030822  -0.006564  -0.004162
     5  C    0.013202  -0.021518  -0.027642  -0.056568   0.001400   0.001693
     6  C   -0.022310   0.001054   0.005417  -0.004771  -0.002761  -0.001755
     7  H   -0.007261   0.001676   0.000046   0.018365  -0.000338  -0.000946
     8  C    0.034801  -0.020937  -0.620183  -0.653084   0.061533   0.015423
     9  C    0.014624  -0.028304  -0.047569  -0.098605   0.011214   0.002626
    10  H    0.000108   0.000345   0.000636   0.001949   0.000051   0.000010
    11  H   -0.001956   0.000743   0.000480  -0.000555  -0.000024  -0.000045
    12  C    0.002298   0.029539  -0.057863   0.181237  -0.008966  -0.002624
    13  C   -0.006304   0.046912   0.195250   0.299375  -0.021732  -0.001307
    14  H    0.000089  -0.000334  -0.000822   0.000107  -0.000103   0.000002
    15  H    0.000031   0.000721  -0.000621   0.003420  -0.000390  -0.000098
    16  H   -0.000757   0.001295   0.039846   0.019399  -0.010995   0.001105
    17  B    0.001609  -0.157424  -0.882465  -1.070227  -0.023061   0.039760
    18  N    0.031433  -0.050979  -0.035102  -0.038166   0.013383  -0.030162
    19  C   -0.014073   0.035917   0.212168  -0.116703   0.026717   0.052272
    20  H   -0.006732   0.001385   0.008204  -0.075216   0.002538   0.012314
    21  H    0.008646   0.004556   0.053401   0.114924  -0.002433  -0.013024
    22  H    0.001670  -0.001213   0.022194   0.034253   0.001042  -0.023841
    23  C    0.477866   0.386595  -0.137421   0.111107   0.004821  -0.003104
    24  H   -0.031162  -0.016508   0.014583  -0.010301   0.000141  -0.001665
    25  H    0.517277  -0.044471  -0.043579   0.008931   0.000018  -0.000380
    26  H   -0.044471   0.484805   0.085172   0.024729   0.000350   0.000725
    27  C   -0.043579   0.085172   6.872590   0.196500  -0.033301  -0.025766
    28  C    0.008931   0.024729   0.196500   6.852180   0.156666   0.073156
    29  F    0.000018   0.000350  -0.033301   0.156666   8.933839  -0.015631
    30  F   -0.000380   0.000725  -0.025766   0.073156  -0.015631   9.006927
    31  F    0.000083  -0.001310   0.008720   0.136892  -0.017923  -0.017253
    32  F    0.002353  -0.004802   0.126772  -0.028880   0.009119   0.001042
    33  F    0.001179  -0.009631   0.119927  -0.059712  -0.002549   0.017556
    34  F    0.010915  -0.017287   0.118587  -0.003666  -0.001487  -0.000028
              31         32         33         34
     1  C   -0.020681  -0.000966  -0.000572  -0.009021
     2  C    0.027688  -0.025804  -0.026586  -0.009612
     3  C    0.044898   0.001567   0.000621   0.000672
     4  C   -0.012713   0.002832   0.004312   0.027472
     5  C    0.008593   0.001067   0.000381   0.001551
     6  C   -0.005456  -0.000573  -0.000049  -0.001099
     7  H   -0.000161   0.000006  -0.000323  -0.000071
     8  C    0.002063   0.007410   0.040840   0.262679
     9  C    0.008707   0.005350   0.000693   0.000146
    10  H   -0.000086  -0.000004  -0.000009  -0.000041
    11  H   -0.000252  -0.000011  -0.000002   0.000003
    12  C   -0.007282   0.041745  -0.001576  -0.049960
    13  C   -0.019780  -0.004702  -0.011788  -0.134850
    14  H    0.000083  -0.000038   0.000007   0.000046
    15  H   -0.000123   0.000374  -0.000043  -0.000132
    16  H   -0.001977  -0.002232   0.001022   0.000476
    17  B    0.009592  -0.048847   0.038397   0.015370
    18  N    0.028713   0.023994   0.064874  -0.047191
    19  C   -0.044486  -0.001357  -0.009168  -0.002486
    20  H    0.001869   0.000064   0.003609  -0.000247
    21  H   -0.002605   0.000254  -0.018866  -0.000027
    22  H    0.016821   0.000290  -0.000653   0.000269
    23  C   -0.003962   0.032629  -0.027340   0.035638
    24  H    0.000509   0.002206   0.011923  -0.020202
    25  H    0.000083   0.002353   0.001179   0.010915
    26  H   -0.001310  -0.004802  -0.009631  -0.017287
    27  C    0.008720   0.126772   0.119927   0.118587
    28  C    0.136892  -0.028880  -0.059712  -0.003666
    29  F   -0.017923   0.009119  -0.002549  -0.001487
    30  F   -0.017253   0.001042   0.017556  -0.000028
    31  F    8.916848   0.000704  -0.000872  -0.000625
    32  F    0.000704   8.955126  -0.013716  -0.035992
    33  F   -0.000872  -0.013716   8.958106  -0.023652
    34  F   -0.000625  -0.035992  -0.023652   8.918784
 Mulliken charges:
               1
     1  C   -0.315371
     2  C    0.046265
     3  C   -0.109746
     4  C    0.286120
     5  C   -0.311598
     6  C   -0.494649
     7  H    0.214978
     8  C   -0.006637
     9  C   -0.330252
    10  H    0.210380
    11  H    0.245865
    12  C   -0.260105
    13  C   -0.176753
    14  H    0.207906
    15  H    0.240351
    16  H    0.259494
    17  B    0.208005
    18  N   -0.052334
    19  C   -0.344110
    20  H    0.177432
    21  H    0.278728
    22  H    0.265193
    23  C   -0.462207
    24  H    0.263900
    25  H    0.222134
    26  H    0.260640
    27  C   -0.076897
    28  C   -0.169320
    29  F   -0.045059
    30  F   -0.038864
    31  F   -0.055237
    32  F   -0.046983
    33  F   -0.056339
    34  F   -0.034932
 Sum of Mulliken charges =  -0.00000
 Mulliken charges with hydrogens summed into heavy atoms:
               1
     1  C   -0.100393
     2  C    0.046265
     3  C   -0.109746
     4  C    0.286120
     5  C   -0.101218
     6  C   -0.248784
     8  C   -0.006637
     9  C   -0.122346
    12  C   -0.019753
    13  C    0.082742
    17  B    0.208005
    18  N   -0.052334
    19  C    0.377243
    23  C    0.284468
    27  C   -0.076897
    28  C   -0.169320
    29  F   -0.045059
    30  F   -0.038864
    31  F   -0.055237
    32  F   -0.046983
    33  F   -0.056339
    34  F   -0.034932
 Electronic spatial extent (au):  <R**2>=           8531.9563
 Charge=             -0.0000 electrons
 Dipole moment (field-independent basis, Debye):
    X=             -7.6666    Y=             -0.1271    Z=             -1.0413  Tot=              7.7380
 Quadrupole moment (field-independent basis, Debye-Ang):
   XX=            -84.0130   YY=           -110.3811   ZZ=           -133.4730
   XY=             16.1032   XZ=              0.6286   YZ=              0.4690
 Traceless Quadrupole moment (field-independent basis, Debye-Ang):
   XX=             25.2761   YY=             -1.0921   ZZ=            -24.1840
   XY=             16.1032   XZ=              0.6286   YZ=              0.4690
 Octapole moment (field-independent basis, Debye-Ang**2):
  XXX=            705.2710  YYY=            247.8643  ZZZ=              2.0650  XYY=            225.6194
  XXY=             19.9674  XXZ=             15.2976  XZZ=            318.9362  YZZ=             79.8347
  YYZ=              1.7977  XYZ=             -9.1821
 Hexadecapole moment (field-independent basis, Debye-Ang**3):
 XXXX=          -5926.5450 YYYY=          -2740.5137 ZZZZ=          -1101.9905 XXXY=             -7.6687
 XXXZ=            -53.2041 YYYX=           -138.9317 YYYZ=            -48.1938 ZZZX=            132.5286
 ZZZY=            -24.8592 XXYY=          -1330.2362 XXZZ=          -1407.7742 YYZZ=           -684.9846
 XXYZ=             28.8327 YYXZ=             26.8596 ZZXY=            -33.0146
 N-N= 2.041325000260D+03 E-N=-6.953013921657D+03  KE= 1.215390128026D+03
 Breneman (CHELPG) radii used.
 Generate Potential Derived Charges using the Breneman model, NDens= 1.
 Grid spacing= 0.300 Box extension= 2.800
 NStep X,Y,Z=   46     46     36   Total possible points=       76176
 Number of Points to Fit=   17720

 **********************************************************************

            Electrostatic Properties Using The SCF Density.

 **********************************************************************

       Atomic Center    1 is at  -5.357162 -0.815304  0.492212
       Atomic Center    2 is at  -4.039878 -0.801504  0.145297
       Atomic Center    3 is at  -3.337273  0.396296 -0.042834
       Atomic Center    4 is at  -3.978001  1.640358  0.074004
       Atomic Center    5 is at  -5.351451  1.627433  0.434369
       Atomic Center    6 is at  -6.005097  0.439096  0.648430
       Atomic Center    7 is at  -5.914611 -1.732488  0.639288
       Atomic Center    8 is at  -1.966000  0.228885 -0.330030
       Atomic Center    9 is at  -3.177095  2.784309 -0.170587
       Atomic Center   10 is at  -5.883478  2.566067  0.546896
       Atomic Center   11 is at  -7.050809  0.447341  0.932775
       Atomic Center   12 is at  -1.847750  2.634965 -0.487222
       Atomic Center   13 is at  -1.225901  1.361036 -0.555071
       Atomic Center   14 is at  -3.617349  3.773337 -0.102213
       Atomic Center   15 is at  -1.246584  3.518510 -0.672611
       Atomic Center   16 is at  -0.163651  1.301534 -0.764836
       Atomic Center   17 is at  -1.637710 -1.323920 -0.137207
       Atomic Center   18 is at  -3.188421 -1.961766 -0.194930
       Atomic Center   19 is at  -3.427482 -3.135217  0.692483
       Atomic Center   20 is at  -4.429011 -3.526223  0.511212
       Atomic Center   21 is at  -2.691745 -3.901596  0.456980
       Atomic Center   22 is at  -3.333697 -2.833146  1.731042
       Atomic Center   23 is at  -3.561086 -2.366233 -1.592380
       Atomic Center   24 is at  -2.965817 -3.227232 -1.887406
       Atomic Center   25 is at  -4.619880 -2.624009 -1.603863
       Atomic Center   26 is at  -3.376966 -1.533493 -2.266618
       Atomic Center   27 is at  -0.646781 -1.998545 -1.245786
       Atomic Center   28 is at  -1.003387 -1.534522  1.365152
       Atomic Center   29 is at   0.108634 -0.792548  1.545516
       Atomic Center   30 is at  -0.647558 -2.811390  1.673746
       Atomic Center   31 is at  -1.859029 -1.152870  2.357161
       Atomic Center   32 is at   0.640041 -1.637366 -1.048659
       Atomic Center   33 is at  -0.654163 -3.363948 -1.242769
       Atomic Center   34 is at  -0.925497 -1.644405 -2.528021
   17720 points will be used for fitting atomic charges
 Fitting point charges to electrostatic potential
 Charges from ESP fit, RMS=   0.00361 RRMS=   0.16694:
 ESP charges:
               1
     1  C   -0.230790
     2  C    0.250077
     3  C   -0.072905
     4  C    0.279333
     5  C   -0.316719
     6  C   -0.038247
     7  H    0.161767
     8  C    0.101407
     9  C   -0.309649
    10  H    0.164794
    11  H    0.109685
    12  C   -0.018610
    13  C   -0.207586
    14  H    0.150356
    15  H    0.101645
    16  H    0.133212
    17  B   -0.267007
    18  N   -0.190273
    19  C   -0.311671
    20  H    0.149369
    21  H    0.173467
    22  H    0.172130
    23  C   -0.125833
    24  H    0.152554
    25  H    0.097220
    26  H    0.085017
    27  C    0.719494
    28  C    0.812264
    29  F   -0.291205
    30  F   -0.292851
    31  F   -0.318906
    32  F   -0.262057
    33  F   -0.272837
    34  F   -0.286647
 Sum of ESP charges =  -0.00000
 ESP charges with hydrogens summed into heavy atoms:
               1
     1  C   -0.069023
     2  C    0.250077
     3  C   -0.072905
     4  C    0.279333
     5  C   -0.151924
     6  C    0.071438
     8  C    0.101407
     9  C   -0.159292
    12  C    0.083035
    13  C   -0.074374
    17  B   -0.267007
    18  N   -0.190273
    19  C    0.183295
    23  C    0.208958
    27  C    0.719494
    28  C    0.812264
    29  F   -0.291205
    30  F   -0.292851
    31  F   -0.318906
    32  F   -0.262057
    33  F   -0.272837
    34  F   -0.286647
 Charge=  -0.00000 Dipole=    -7.7822    -0.0352    -1.0929 Tot=     7.8587
 -----------------------------------------------------------------

              Electrostatic Properties (Atomic Units)

 -----------------------------------------------------------------
    Center     Electric         -------- Electric Field --------
               Potential          X             Y             Z
 -----------------------------------------------------------------
    1 Atom    -14.735532
    2 Atom    -14.706820
    3 Atom    -14.758224
    4 Atom    -14.747867
    5 Atom    -14.750004
    6 Atom    -14.744229
    7 Atom     -1.057463
    8 Atom    -14.782166
    9 Atom    -14.761489
   10 Atom     -1.082762
   11 Atom     -1.079790
   12 Atom    -14.764274
   13 Atom    -14.769844
   14 Atom     -1.091347
   15 Atom     -1.100078
   16 Atom     -1.110672
   17 Atom    -11.443222
   18 Atom    -18.269381
   19 Atom    -14.707649
   20 Atom     -1.060398
   21 Atom     -1.071294
   22 Atom     -1.073608
   23 Atom    -14.706859
   24 Atom     -1.069606
   25 Atom     -1.062290
   26 Atom     -1.072407
   27 Atom    -14.556926
   28 Atom    -14.561209
   29 Atom    -26.598630
   30 Atom    -26.593078
   31 Atom    -26.590257
   32 Atom    -26.593891
   33 Atom    -26.585951
   34 Atom    -26.587433
 -----------------------------------------------------------------
 Unable to Open any file for archive entry.
 1\1\GINC-IRENE6089\SP\RwB97XD\GenECP\C14H12B1F6N1\PENASFRA\11-Apr-2024
 \0\\# wb97xd/genecp scrf=(solvent=toluene,pcm) nosymm pop=(chelpg) scf
 cyc=300\\cf3_naphthalene_chelpg\\0,1\C,0,-5.357162,-0.815304,0.492212\
 C,0,-4.039878,-0.801504,0.145297\C,0,-3.337273,0.396296,-0.042834\C,0,
 -3.978001,1.640358,0.074004\C,0,-5.351451,1.627433,0.434369\C,0,-6.005
 097,0.439096,0.64843\H,0,-5.914611,-1.732488,0.639288\C,0,-1.966,0.228
 885,-0.33003\C,0,-3.177095,2.784309,-0.170587\H,0,-5.883478,2.566067,0
 .546896\H,0,-7.050809,0.447341,0.932775\C,0,-1.84775,2.634965,-0.48722
 2\C,0,-1.225901,1.361036,-0.555071\H,0,-3.617349,3.773337,-0.102213\H,
 0,-1.246584,3.51851,-0.672611\H,0,-0.163651,1.301534,-0.764836\B,0,-1.
 63771,-1.32392,-0.137207\N,0,-3.188421,-1.961766,-0.19493\C,0,-3.42748
 2,-3.135217,0.692483\H,0,-4.429011,-3.526223,0.511212\H,0,-2.691745,-3
 .901596,0.45698\H,0,-3.333697,-2.833146,1.731042\C,0,-3.561086,-2.3662
 33,-1.59238\H,0,-2.965817,-3.227232,-1.887406\H,0,-4.61988,-2.624009,-
 1.603863\H,0,-3.376966,-1.533493,-2.266618\C,0,-0.646781,-1.998545,-1.
 245786\C,0,-1.003387,-1.534522,1.365152\F,0,0.108634,-0.792548,1.54551
 6\F,0,-0.647558,-2.81139,1.673746\F,0,-1.859029,-1.15287,2.357161\F,0,
 0.640041,-1.637366,-1.048659\F,0,-0.654163,-3.363948,-1.242769\F,0,-0.
 925497,-1.644405,-2.528021\\Version=AS64L-G16RevC.02\HF=-1219.4265086\
 RMSD=7.206e-09\Dipole=-3.0162748,-0.0499993,-0.4096792\Quadrupole=18.7
 92144,-0.8119438,-17.9802002,11.972301,0.4673725,0.3486871\PG=C01 [X(C
 14H12B1F6N1)]\\@
 The archive entry for this job was punched.


 THOSE WHO ARE UNABLE TO LEARN FROM PAST MEETINGS
 ARE CONDEMNED TO REPEAT THEM.
 Job cpu time:       0 days  1 hours 40 minutes 22.9 seconds.
 Elapsed time:       0 days  0 hours  1 minutes  0.8 seconds.
 File lengths (MBytes):  RWF=    271 Int=      0 D2E=      0 Chk=     21 Scr=      1
 Normal termination of Gaussian 16 at Thu Apr 11 16:29:56 2024.
