 Entering Gaussian System, Link 0=/ccc/products/gaussian-16-C.02/system/default/g16/g16
 Input=cf3_dibenzofuran_chelpg.gjf
 Output=cf3_dibenzofuran_chelpg.log
 Initial command:
 /ccc/products/gaussian-16-C.02/system/default/g16/l1.exe "/ccc/scratch/cont003/gen7343/penasfra/flp/b-n_flp/cf3_dibenzofuran/reac/Gau-61567.inp" -scrdir="/ccc/scratch/cont003/gen7343/penasfra/flp/b-n_flp/cf3_dibenzofuran/reac/"
 Entering Link 1 = /ccc/products/gaussian-16-C.02/system/default/g16/l1.exe PID=     61616.
  
 Copyright (c) 1988-2021, Gaussian, Inc.  All Rights Reserved.
  
 This is part of the Gaussian(R) 16 program.  It is based on
 the Gaussian(R) 09 system (copyright 2009, Gaussian, Inc.),
 the Gaussian(R) 03 system (copyright 2003, Gaussian, Inc.),
 the Gaussian(R) 98 system (copyright 1998, Gaussian, Inc.),
 the Gaussian(R) 94 system (copyright 1995, Gaussian, Inc.),
 the Gaussian 92(TM) system (copyright 1992, Gaussian, Inc.),
 the Gaussian 90(TM) system (copyright 1990, Gaussian, Inc.),
 the Gaussian 88(TM) system (copyright 1988, Gaussian, Inc.),
 the Gaussian 86(TM) system (copyright 1986, Carnegie Mellon
 University), and the Gaussian 82(TM) system (copyright 1983,
 Carnegie Mellon University). Gaussian is a federally registered
 trademark of Gaussian, Inc.
  
 This software contains proprietary and confidential information,
 including trade secrets, belonging to Gaussian, Inc.
  
 This software is provided under written license and may be
 used, copied, transmitted, or stored only in accord with that
 written license.
  
 The following legend is applicable only to US Government
 contracts under FAR:
  
                    RESTRICTED RIGHTS LEGEND
  
 Use, reproduction and disclosure by the US Government is
 subject to restrictions as set forth in subparagraphs (a)
 and (c) of the Commercial Computer Software - Restricted
 Rights clause in FAR 52.227-19.
  
 Gaussian, Inc.
 340 Quinnipiac St., Bldg. 40, Wallingford CT 06492
  
  
 ---------------------------------------------------------------
 Warning -- This program may not be used in any manner that
 competes with the business of Gaussian, Inc. or will provide
 assistance to any competitor of Gaussian, Inc.  The licensee
 of this program is prohibited from giving any competitor of
 Gaussian, Inc. access to this program.  By using this program,
 the user acknowledges that Gaussian, Inc. is engaged in the
 business of creating and licensing software in the field of
 computational chemistry and represents and warrants to the
 licensee that it is not a competitor of Gaussian, Inc. and that
 it will not use this program in any manner prohibited above.
 ---------------------------------------------------------------
  

 Cite this work as:
 Gaussian 16, Revision C.02,
 M. J. Frisch, G. W. Trucks, H. B. Schlegel, G. E. Scuseria, 
 M. A. Robb, J. R. Cheeseman, G. Scalmani, V. Barone, 
 G. A. Petersson, H. Nakatsuji, X. Li, M. Caricato, A. V. Marenich, 
 J. Bloino, B. G. Janesko, R. Gomperts, B. Mennucci, H. P. Hratchian, 
 J. V. Ortiz, A. F. Izmaylov, J. L. Sonnenberg, D. Williams-Young, 
 F. Ding, F. Lipparini, F. Egidi, J. Goings, B. Peng, A. Petrone, 
 T. Henderson, D. Ranasinghe, V. G. Zakrzewski, J. Gao, N. Rega, 
 G. Zheng, W. Liang, M. Hada, M. Ehara, K. Toyota, R. Fukuda, 
 J. Hasegawa, M. Ishida, T. Nakajima, Y. Honda, O. Kitao, H. Nakai, 
 T. Vreven, K. Throssell, J. A. Montgomery, Jr., J. E. Peralta, 
 F. Ogliaro, M. J. Bearpark, J. J. Heyd, E. N. Brothers, K. N. Kudin, 
 V. N. Staroverov, T. A. Keith, R. Kobayashi, J. Normand, 
 K. Raghavachari, A. P. Rendell, J. C. Burant, S. S. Iyengar, 
 J. Tomasi, M. Cossi, J. M. Millam, M. Klene, C. Adamo, R. Cammi, 
 J. W. Ochterski, R. L. Martin, K. Morokuma, O. Farkas, 
 J. B. Foresman, and D. J. Fox, Gaussian, Inc., Wallingford CT, 2019.
 
 ******************************************
 Gaussian 16:  AS64L-G16RevC.02  7-Dec-2021
                11-Apr-2024 
 ******************************************
 %nprocshared=128
 Will use up to  128 processors via shared memory.
 %mem=30GB
 %chk=cf3_dibenzofuran_chelpg.chk
 ----------------------------------------------------------------------
 # wb97xd/genecp scrf=(solvent=toluene,pcm) nosymm pop=(chelpg) scfcyc=
 300
 ----------------------------------------------------------------------
 1/38=1,172=1/1;
 2/12=2,15=1,17=6,18=5,40=1/2;
 3/5=7,11=2,16=1,17=8,25=1,30=1,70=2201,72=13,74=-58/1,2,3;
 4//1;
 5/5=2,7=300,38=5,53=13/2;
 6/7=2,8=2,9=2,10=2,15=8,20=3,28=1/1,2;
 99/5=1,9=1/99;
 -----------------------
 cf3_dibenzofuran_chelpg
 -----------------------
 Symbolic Z-matrix:
 Charge =  0 Multiplicity = 1
 C                     2.12756   2.18892   0.1997 
 C                     1.97232   2.5725   -1.13593 
 O                     1.60471   3.11179   1.03622 
 C                     1.30537   3.85957  -1.10041 
 C                     1.1146    4.13103   0.2505 
 C                     0.83108   4.74111  -2.07251 
 C                     0.4608    5.27245   0.73614 
 C                     0.17385   5.87325  -1.62792 
 H                     0.96371   4.54107  -3.12854 
 C                    -0.00242   6.13555  -0.26357 
 H                    -0.21332   6.58725  -2.34582 
 H                    -0.51525   7.04476   0.02107 
 C                     2.41822   1.72734  -2.144 
 H                     2.31312   2.008    -3.18592 
 C                     2.99079   0.50788  -1.7948 
 H                     3.34076  -0.16408  -2.56853 
 C                     3.10818   0.13386  -0.46215 
 C                     2.70014   0.97159   0.60237 
 H                     3.55431  -0.82619  -0.23718 
 B                     2.97235   0.5768    2.04263 
 N                     0.24942   5.47453   2.10063 
 C                     1.42485   5.41959   2.96434 
 H                     2.02305   6.34037   2.8859 
 H                     1.09999   5.30365   4.00016 
 H                     2.0529    4.57034   2.7135 
 C                    -0.65958   6.54091   2.4716 
 H                    -0.86938   6.4583    3.53941 
 H                    -0.2461    7.54495   2.28311 
 H                    -1.60324   6.44129   1.93232 
 C                     3.16896   1.65123   3.24112 
 C                     3.16343  -0.96885   2.49135 
 F                     3.94471   1.18594   4.24231 
 F                     1.98023   1.97932   3.7897 
 F                     3.75367   2.79507   2.83027 
 F                     2.65433  -1.21391   3.71398 
 F                     4.48202  -1.27522   2.53641 
 F                     2.58841  -1.86567   1.66531 
 
                          Input orientation:                          
 ---------------------------------------------------------------------
 Center     Atomic      Atomic             Coordinates (Angstroms)
 Number     Number       Type             X           Y           Z
 ---------------------------------------------------------------------
      1          6           0        2.127564    2.188923    0.199702
      2          6           0        1.972324    2.572501   -1.135925
      3          8           0        1.604711    3.111785    1.036215
      4          6           0        1.305372    3.859567   -1.100410
      5          6           0        1.114598    4.131030    0.250499
      6          6           0        0.831081    4.741108   -2.072513
      7          6           0        0.460797    5.272445    0.736143
      8          6           0        0.173850    5.873245   -1.627922
      9          1           0        0.963710    4.541065   -3.128543
     10          6           0       -0.002419    6.135553   -0.263573
     11          1           0       -0.213322    6.587245   -2.345818
     12          1           0       -0.515254    7.044765    0.021072
     13          6           0        2.418220    1.727338   -2.143999
     14          1           0        2.313116    2.007996   -3.185921
     15          6           0        2.990789    0.507881   -1.794803
     16          1           0        3.340755   -0.164075   -2.568528
     17          6           0        3.108182    0.133864   -0.462145
     18          6           0        2.700136    0.971592    0.602369
     19          1           0        3.554313   -0.826189   -0.237181
     20          5           0        2.972354    0.576799    2.042631
     21          7           0        0.249417    5.474530    2.100626
     22          6           0        1.424852    5.419587    2.964339
     23          1           0        2.023053    6.340371    2.885903
     24          1           0        1.099993    5.303646    4.000157
     25          1           0        2.052905    4.570339    2.713501
     26          6           0       -0.659583    6.540908    2.471597
     27          1           0       -0.869382    6.458297    3.539413
     28          1           0       -0.246099    7.544946    2.283110
     29          1           0       -1.603238    6.441291    1.932321
     30          6           0        3.168959    1.651225    3.241124
     31          6           0        3.163434   -0.968851    2.491351
     32          9           0        3.944714    1.185937    4.242312
     33          9           0        1.980228    1.979316    3.789695
     34          9           0        3.753674    2.795069    2.830268
     35          9           0        2.654327   -1.213906    3.713978
     36          9           0        4.482023   -1.275221    2.536410
     37          9           0        2.588408   -1.865672    1.665313
 ---------------------------------------------------------------------
                    Distance matrix (angstroms):
                    1          2          3          4          5
     1  C    0.000000
     2  C    1.398260   0.000000
     3  O    1.350853   2.268074   0.000000
     4  C    2.270978   1.450043   2.283407   0.000000
     5  C    2.190995   2.255411   1.377106   1.391058   0.000000
     6  C    3.654788   2.623450   3.594077   1.395368   2.418463
     7  C    3.545982   3.616497   2.463135   2.466264   1.402189
     8  C    4.553179   3.790974   4.095198   2.369285   2.729246
     9  H    4.238436   2.977091   4.449599   2.166679   3.407172
    10  C    4.508585   4.166047   3.662716   2.755127   2.351618
    11  H    5.595056   4.728537   5.179017   3.361205   3.812771
    12  H    5.531329   5.246697   4.581823   3.836390   3.346477
    13  C    2.406341   1.389006   3.562619   2.621814   3.634665
    14  H    3.395528   2.153436   4.421156   2.965336   4.213395
    15  C    2.747564   2.394587   4.088544   3.815313   4.564051
    16  H    3.830343   3.378432   5.171004   4.742136   5.599162
    17  C    2.371270   2.773284   3.656983   4.187884   4.523226
    18  C    1.404234   2.472708   2.443073   3.631146   3.552435
    19  H    3.364131   3.855065   4.574945   5.268701   5.546536
    20  B    2.590174   3.884084   3.051143   4.840878   4.392670
    21  N    4.235111   4.676050   2.924441   3.737617   2.444688
    22  C    4.309781   5.021732   3.012634   4.355470   3.020193
    23  H    4.945818   5.511308   3.744346   4.749752   3.556941
    24  H    5.020046   5.882130   3.720746   5.305029   3.928763
    25  H    3.463510   4.337733   2.267498   3.950939   2.672039
    26  C    5.645305   5.974061   4.352727   4.879536   3.726729
    27  H    6.193780   6.710700   4.856571   5.745512   4.491025
    28  H    6.217865   6.429340   4.963181   5.238061   4.199741
    29  H    5.916374   6.096418   4.709517   4.931812   3.943661
    30  C    3.259428   4.630253   3.072740   5.215232   4.394732
    31  C    4.036857   5.207403   4.604197   6.298155   5.935312
    32  F    4.544305   5.893922   4.411753   6.531394   5.711191
    33  F    3.599124   4.961216   3.000858   5.282414   4.231441
    34  F    3.151432   4.353554   2.817264   4.751586   3.924885
    35  F    4.920047   6.190603   5.194585   7.123071   6.552465
    36  F    4.796246   5.881292   5.456678   7.048661   6.767015
    37  F    4.335912   5.284304   5.112583   6.486429   6.335160
                    6          7          8          9         10
     6  C    0.000000
     7  C    2.882356   0.000000
     8  C    1.382515   2.456034   0.000000
     9  H    1.082962   3.965304   2.156489   0.000000
    10  C    2.431350   1.399627   1.400473   3.418165   0.000000
    11  H    2.138620   3.417838   1.084008   2.486949   2.141086
    12  H    3.391541   2.145954   2.136938   4.286715   1.081984
    13  C    3.406894   4.969357   4.742581   3.316924   5.369158
    14  H    3.302424   5.428655   4.684439   2.870649   5.562243
    15  C    4.760428   5.958827   6.062188   4.706855   6.555505
    16  H    5.532207   6.983606   6.882097   5.301160   7.494995
    17  C    5.385645   5.903351   6.550560   5.579593   6.762806
    18  C    4.985741   4.850760   5.948321   5.447570   5.892381
    19  H    6.463686   6.907281   7.631783   6.624093   7.817729
    20  B    6.233854   5.483058   7.025448   6.818438   6.713240
    21  N    4.276836   1.395469   3.750567   5.359644   2.467754
    22  C    5.116911   2.432264   4.781179   6.173141   3.601267
    23  H    5.344561   2.864014   4.900242   6.366574   3.750158
    24  H    6.104595   3.326159   5.732142   7.170667   4.481827
    25  H    4.942464   2.633952   4.906767   5.942784   3.941728
    26  C    5.109823   2.424057   4.236324   6.164091   2.842065
    27  H    6.110158   3.321738   5.303958   7.176186   3.913884
    28  H    5.290867   2.838498   4.274004   6.306578   2.920850
    29  H    4.985502   2.656555   4.019459   5.984348   2.734602
    30  C    6.576305   5.169362   7.106598   7.333959   6.515346
    31  C    7.672832   7.024157   8.527620   8.171975   8.251351
    32  F    7.887393   6.413302   8.405351   8.629761   7.770557
    33  F    6.581301   4.741049   6.912037   7.447005   6.134670
    34  F    6.030413   4.622314   6.493517   6.807336   5.902450
    35  F    8.501170   7.466714   9.215008   9.099339   8.768909
    36  F    8.412358   7.891967   9.327517   8.848695   9.103279
    37  F    7.791603   7.506184   8.750218   8.164985   8.628591
                   11         12         13         14         15
    11  H    0.000000
    12  H    2.429538   0.000000
    13  C    5.530320   6.447312   0.000000
    14  H    5.296998   6.607081   1.084167   0.000000
    15  C    6.894100   7.636792   1.391707   2.155179   0.000000
    16  H    7.632915   8.575675   2.146797   2.480949   1.082890
    17  C    7.498449   7.818142   2.417404   3.400508   1.389117
    18  C    6.979656   6.896381   2.862371   3.946525   2.458849
    19  H    8.579069   8.864535   3.383366   4.274136   2.126849
    20  B    8.095213   7.621332   4.377062   5.460831   3.838097
    21  N    4.606856   2.715678   6.063167   6.650059   6.881649
    22  C    5.678451   3.881757   6.380799   7.088982   7.016156
    23  H    5.695018   3.891841   6.836384   7.464627   7.540787
    24  H    6.606347   4.633965   7.230377   7.998293   7.756032
    25  H    5.899187   4.468490   5.640161   6.437118   6.140684
    26  C    4.838262   2.505948   7.344866   7.835288   8.241650
    27  H    5.923089   3.584421   8.092680   8.669694   8.874809
    28  H    4.727075   2.332261   7.780903   8.192539   8.753691
    29  H    4.500627   2.280518   7.416863   7.822297   8.378657
    30  C    8.186455   7.282337   5.437734   6.493586   5.167160
    31  C    9.586202   9.157132   5.413986   6.466535   4.536701
    32  F    9.479813   8.487405   6.588495   7.649610   6.149511
    33  F    7.980551   6.788868   5.955170   6.983613   5.862847
    34  F    7.543840   6.646446   5.259926   6.236122   5.215794
    35  F   10.286034   9.585898   6.559158   7.622708   5.781386
    36  F   10.377899  10.026060   5.931347   6.944692   4.915551
    37  F    9.766815   9.577689   5.239231   6.214142   4.215219
                   16         17         18         19         20
    16  H    0.000000
    17  C    2.140025   0.000000
    18  C    3.428516   1.414737   0.000000
    19  H    2.432937   1.082286   2.160203   0.000000
    20  B    4.684805   2.547262   1.517998   2.739451   0.000000
    21  N    7.946775   6.577465   5.341091   7.489108   5.604063
    22  C    8.090771   6.520219   5.195182   7.334443   5.166905
    23  H    8.590400   7.134960   5.873394   7.966053   5.901783
    24  H    8.835418   7.118399   5.733421   7.845610   5.448002
    25  H    7.209235   5.557036   4.222176   6.331135   4.152567
    26  C    9.293135   7.990814   6.767496   8.908901   6.996111
    27  H    9.944245   8.475372   7.174372   9.321774   7.182709
    28  H    9.789429   8.585555   7.396903   9.532623   7.679280
    29  H    9.398488   8.228887   7.085577   9.171877   7.439118
    30  C    6.089079   4.002534   2.764909   4.287736   1.621552
    31  C    5.126547   3.153121   2.747402   2.760077   1.620770
    32  F    6.969565   4.892705   3.852805   4.926147   2.480953
    33  F    6.846324   4.770337   3.419477   5.154060   2.450225
    34  F    6.170416   4.282366   3.065705   4.750000   2.480233
    35  F    6.406497   4.411629   3.802711   4.070867   2.470054
    36  F    5.347666   3.586683   3.458873   2.958899   2.439856
    37  F    4.624594   2.965533   3.031897   2.373390   2.501089
                   21         22         23         24         25
    21  N    0.000000
    22  C    1.459680   0.000000
    23  H    2.124176   1.100836   0.000000
    24  H    2.088277   1.091739   1.780000   0.000000
    25  H    2.108494   1.085630   1.778659   1.761041   0.000000
    26  C    1.449504   2.417649   2.721838   2.638829   3.361436
    27  H    2.071139   2.583242   2.967686   2.328936   3.575790
    28  H    2.136693   2.788064   2.638828   3.127881   3.784038
    29  H    2.096493   3.358313   3.750932   3.588543   4.180680
    30  C    4.943897   4.161619   4.840183   4.265786   3.169415
    31  C    7.082466   6.637660   7.408162   6.773367   5.653782
    32  F    6.052608   5.089864   5.665758   5.010649   4.167779
    33  F    4.250315   3.581218   4.453928   3.445327   2.806577
    34  F    4.471209   3.511336   3.945543   3.834530   2.461267
    35  F    7.288462   6.787989   7.625701   6.706440   5.900860
    36  F    7.978972   7.372237   8.010363   7.540701   6.332657
    37  F    7.716148   7.491083   8.315564   7.685441   6.542759
                   26         27         28         29         30
    26  C    0.000000
    27  H    1.091362   0.000000
    28  H    1.102084   1.774143   0.000000
    29  H    1.091433   1.766799   1.784078   0.000000
    30  C    6.257708   6.285310   6.878689   6.887058   0.000000
    31  C    8.426881   8.516136   9.173495   8.828583   2.725250
    32  F    7.280845   7.174076   7.863738   7.983394   1.349321
    33  F    5.432689   5.314526   6.180823   6.016667   1.349687
    34  F    5.799723   5.940940   6.233691   6.541999   1.348730
    35  F    8.524239   8.444507   9.336881   8.938859   2.949138
    36  F    9.355864   9.457846  10.010726   9.845805   3.284029
    37  F    9.048211   9.206358   9.847631   9.308428   3.897279
                   31         32         33         34         35
    31  C    0.000000
    32  F    2.884333   0.000000
    33  F    3.431816   2.166453   0.000000
    34  F    3.824963   2.149342   2.175101   0.000000
    35  F    1.346870   2.775515   3.264477   4.249869   0.000000
    36  F    1.354463   3.042384   4.292052   4.145372   2.175063
    37  F    1.348066   4.218152   4.434728   4.943427   2.150854
                   36         37
    36  F    0.000000
    37  F    2.166384   0.000000
 Symmetry turned off by external request.
 Stoichiometry    C16H12BF6NO
 Framework group  C1[X(C16H12BF6NO)]
 Deg. of freedom   105
 Full point group                 C1      NOp   1
 Rotational constants (GHZ):           0.3627202           0.1577023           0.1185014
 General basis read from cards:  (5D, 7F)
 ======================================================================================================
                                       Pseudopotential Parameters
 ======================================================================================================
  Center     Atomic      Valence      Angular      Power
  Number     Number     Electrons     Momentum     of R      Exponent        Coefficient   SO-Coeffient
 ======================================================================================================
    1          6
                                   No pseudopotential on this center.
    2          6
                                   No pseudopotential on this center.
    3          8
                                   No pseudopotential on this center.
    4          6
                                   No pseudopotential on this center.
    5          6
                                   No pseudopotential on this center.
    6          6
                                   No pseudopotential on this center.
    7          6
                                   No pseudopotential on this center.
    8          6
                                   No pseudopotential on this center.
    9          1
                                   No pseudopotential on this center.
   10          6
                                   No pseudopotential on this center.
   11          1
                                   No pseudopotential on this center.
   12          1
                                   No pseudopotential on this center.
   13          6
                                   No pseudopotential on this center.
   14          1
                                   No pseudopotential on this center.
   15          6
                                   No pseudopotential on this center.
   16          1
                                   No pseudopotential on this center.
   17          6
                                   No pseudopotential on this center.
   18          6
                                   No pseudopotential on this center.
   19          1
                                   No pseudopotential on this center.
   20          5
                                   No pseudopotential on this center.
   21          7
                                   No pseudopotential on this center.
   22          6
                                   No pseudopotential on this center.
   23          1
                                   No pseudopotential on this center.
   24          1
                                   No pseudopotential on this center.
   25          1
                                   No pseudopotential on this center.
   26          6
                                   No pseudopotential on this center.
   27          1
                                   No pseudopotential on this center.
   28          1
                                   No pseudopotential on this center.
   29          1
                                   No pseudopotential on this center.
   30          6
                                   No pseudopotential on this center.
   31          6
                                   No pseudopotential on this center.
   32          9
                                   No pseudopotential on this center.
   33          9
                                   No pseudopotential on this center.
   34          9
                                   No pseudopotential on this center.
   35          9
                                   No pseudopotential on this center.
   36          9
                                   No pseudopotential on this center.
   37          9
                                   No pseudopotential on this center.
 ======================================================================================================
   634 basis functions,  1008 primitive gaussians,   659 cartesian basis functions
    91 alpha electrons       91 beta electrons
       nuclear repulsion energy      2306.6547842307 Hartrees.
 NAtoms=   37 NActive=   37 NUniq=   37 SFac= 1.00D+00 NAtFMM=   60 NAOKFM=F Big=F
 Integral buffers will be    131072 words long.
 Raffenetti 2 integral format.
 Two-electron integral symmetry is turned off.
 Nuclear repulsion after empirical dispersion term =     2306.6252112117 Hartrees.
 ------------------------------------------------------------------------------
 Polarizable Continuum Model (PCM)
 =================================
 Model                : PCM.
 Atomic radii         : UFF (Universal Force Field).
 Polarization charges : Total charges.
 Charge compensation  : None.
 Solution method      : On-the-fly selection.
 Cavity type          : Scaled VdW (van der Waals Surface) (Alpha=1.100).
 Cavity algorithm     : GePol (No added spheres)
                        Default sphere list used, NSphG=   37.
                        Lebedev-Laikov grids with approx.  5.0 points / Ang**2.
                        Smoothing algorithm: York/Karplus (Gamma=1.0000).
                        Polarization charges: spherical gaussians, with
                                              point-specific exponents (IZeta= 3).
                        Self-potential: point-specific (ISelfS= 7).
                        Self-field    : sphere-specific E.n sum rule (ISelfD= 2).
 Solvent              : Toluene, Eps=   2.374100 Eps(inf)=   2.238315
 ------------------------------------------------------------------------------
 One-electron integrals computed using PRISM.
   1 Symmetry operations used in ECPInt.
 ECPInt:  NShTT=   22155 NPrTT=   84331 LenC2=   19097 LenP2D=   47014.
 LDataN:  DoStor=T MaxTD1= 4 Len=   56
 Number of processors reduced to  78 by ecpmxn.
 NBasis=   634 RedAO= T EigKep=  1.83D-06  NBF=   634
 NBsUse=   627 1.00D-06 EigRej=  8.35D-07 NBFU=   627
 ExpMin= 3.15D-02 ExpMax= 1.14D+04 ExpMxC= 1.72D+03 IAcc=3 IRadAn=         5 AccDes= 0.00D+00
 Harris functional with IExCor= 4639 and IRadAn=       5 diagonalized for initial guess.
 HarFok:  IExCor= 4639 AccDes= 0.00D+00 IRadAn=         5 IDoV= 1 UseB2=F ITyADJ=14
 ICtDFT=  3500011 ScaDFX=  1.000000  1.000000  1.000000  1.000000
 FoFCou: FMM=F IPFlag=           0 FMFlag=      100000 FMFlg1=           0
         NFxFlg=           0 DoJE=T BraDBF=F KetDBF=T FulRan=T
         wScrn=  0.000000 ICntrl=       500 IOpCl=  0 I1Cent=   200000004 NGrid=           0
         NMat0=    1 NMatS0=      1 NMatT0=    0 NMatD0=    1 NMtDS0=    0 NMtDT0=    0
 Symmetry not used in FoFCou.
 Requested convergence on RMS density matrix=1.00D-08 within 300 cycles.
 Requested convergence on MAX density matrix=1.00D-06.
 Requested convergence on             energy=1.00D-06.
 No special actions if energy rises.
 Inv3:  Mode=1 IEnd=    25334508.
 Iteration    1 A*A^-1 deviation from unit magnitude is 5.11D-15 for   2906.
 Iteration    1 A*A^-1 deviation from orthogonality  is 2.73D-15 for   2890   2517.
 Iteration    1 A^-1*A deviation from unit magnitude is 5.33D-15 for   2886.
 Iteration    1 A^-1*A deviation from orthogonality  is 2.13D-15 for   2905   2426.
 Error on total polarization charges =  0.01144
 SCF Done:  E(RwB97XD) =  -1370.79312554     A.U. after   16 cycles
            NFock= 16  Conv=0.62D-08     -V/T= 2.0033

 **********************************************************************

            Population analysis using the SCF Density.

 **********************************************************************

 Alpha  occ. eigenvalues --  -24.85172 -24.84977 -24.84914 -24.84888 -24.84685
 Alpha  occ. eigenvalues --  -24.84537 -19.33233 -14.45292 -10.53456 -10.53248
 Alpha  occ. eigenvalues --  -10.38109 -10.35887 -10.34363 -10.32750 -10.32614
 Alpha  occ. eigenvalues --  -10.31989 -10.31387 -10.31259 -10.31028 -10.30936
 Alpha  occ. eigenvalues --  -10.30401 -10.29809 -10.29748 -10.29561  -6.91825
 Alpha  occ. eigenvalues --   -1.43248  -1.42834  -1.34235  -1.34139  -1.34011
 Alpha  occ. eigenvalues --   -1.33657  -1.24280  -1.05783  -0.99289  -0.97205
 Alpha  occ. eigenvalues --   -0.90899  -0.88724  -0.85985  -0.84957  -0.83484
 Alpha  occ. eigenvalues --   -0.81735  -0.81259  -0.77418  -0.75517  -0.73682
 Alpha  occ. eigenvalues --   -0.73152  -0.71015  -0.69590  -0.69478  -0.69300
 Alpha  occ. eigenvalues --   -0.69213  -0.67444  -0.67090  -0.64292  -0.62604
 Alpha  occ. eigenvalues --   -0.61175  -0.58817  -0.58355  -0.57715  -0.57469
 Alpha  occ. eigenvalues --   -0.57054  -0.56964  -0.56761  -0.55870  -0.55710
 Alpha  occ. eigenvalues --   -0.55468  -0.54225  -0.53829  -0.53536  -0.52968
 Alpha  occ. eigenvalues --   -0.52311  -0.51852  -0.51349  -0.50967  -0.50740
 Alpha  occ. eigenvalues --   -0.49055  -0.48819  -0.48158  -0.47759  -0.47468
 Alpha  occ. eigenvalues --   -0.46285  -0.46172  -0.45565  -0.44776  -0.44131
 Alpha  occ. eigenvalues --   -0.43178  -0.39750  -0.37245  -0.34032  -0.31757
 Alpha  occ. eigenvalues --   -0.28395
 Alpha virt. eigenvalues --   -0.05221   0.01625   0.03735   0.04310   0.05007
 Alpha virt. eigenvalues --    0.05204   0.05867   0.06014   0.06230   0.06648
 Alpha virt. eigenvalues --    0.07284   0.07690   0.07830   0.08106   0.08737
 Alpha virt. eigenvalues --    0.09052   0.09814   0.10273   0.10450   0.11078
 Alpha virt. eigenvalues --    0.11956   0.12091   0.12512   0.13383   0.13621
 Alpha virt. eigenvalues --    0.14223   0.14464   0.14611   0.14987   0.15448
 Alpha virt. eigenvalues --    0.15548   0.15875   0.16062   0.16417   0.16717
 Alpha virt. eigenvalues --    0.17046   0.17305   0.17810   0.17981   0.18233
 Alpha virt. eigenvalues --    0.18400   0.18640   0.19101   0.19191   0.19376
 Alpha virt. eigenvalues --    0.19590   0.19907   0.20067   0.20516   0.20785
 Alpha virt. eigenvalues --    0.21094   0.21362   0.21804   0.22040   0.22186
 Alpha virt. eigenvalues --    0.22309   0.22657   0.22972   0.23244   0.23336
 Alpha virt. eigenvalues --    0.23637   0.23960   0.24016   0.24585   0.25173
 Alpha virt. eigenvalues --    0.25308   0.25548   0.26114   0.26721   0.26866
 Alpha virt. eigenvalues --    0.27081   0.27524   0.27963   0.28231   0.28258
 Alpha virt. eigenvalues --    0.28774   0.29357   0.29763   0.30078   0.30364
 Alpha virt. eigenvalues --    0.30875   0.30982   0.31297   0.31561   0.32193
 Alpha virt. eigenvalues --    0.32405   0.32560   0.32720   0.33028   0.33457
 Alpha virt. eigenvalues --    0.34195   0.34360   0.34670   0.34961   0.35625
 Alpha virt. eigenvalues --    0.36253   0.36508   0.36805   0.36889   0.37139
 Alpha virt. eigenvalues --    0.37776   0.38346   0.38599   0.38667   0.38956
 Alpha virt. eigenvalues --    0.39161   0.39975   0.40196   0.40666   0.41135
 Alpha virt. eigenvalues --    0.41378   0.41920   0.42200   0.42577   0.42796
 Alpha virt. eigenvalues --    0.42991   0.43595   0.43705   0.44318   0.44691
 Alpha virt. eigenvalues --    0.44854   0.45124   0.45675   0.46630   0.46818
 Alpha virt. eigenvalues --    0.47336   0.47453   0.47856   0.47977   0.48755
 Alpha virt. eigenvalues --    0.49741   0.49822   0.50142   0.50509   0.50773
 Alpha virt. eigenvalues --    0.51333   0.52132   0.53631   0.54005   0.54297
 Alpha virt. eigenvalues --    0.54901   0.55573   0.56467   0.56682   0.57882
 Alpha virt. eigenvalues --    0.58455   0.58944   0.60094   0.60300   0.60872
 Alpha virt. eigenvalues --    0.61359   0.62120   0.62290   0.62995   0.63954
 Alpha virt. eigenvalues --    0.64507   0.64959   0.65871   0.66014   0.66156
 Alpha virt. eigenvalues --    0.66724   0.67445   0.67649   0.67884   0.68693
 Alpha virt. eigenvalues --    0.69832   0.70091   0.70481   0.71171   0.71494
 Alpha virt. eigenvalues --    0.72495   0.72622   0.73655   0.73965   0.74252
 Alpha virt. eigenvalues --    0.75121   0.75551   0.76268   0.76810   0.77059
 Alpha virt. eigenvalues --    0.78205   0.78646   0.79508   0.79747   0.80810
 Alpha virt. eigenvalues --    0.81941   0.82366   0.82965   0.83108   0.83841
 Alpha virt. eigenvalues --    0.84000   0.84917   0.85570   0.86344   0.87384
 Alpha virt. eigenvalues --    0.87984   0.88113   0.88473   0.90350   0.90503
 Alpha virt. eigenvalues --    0.91085   0.92219   0.93838   0.94998   0.95263
 Alpha virt. eigenvalues --    0.95546   0.96240   0.96910   0.97756   0.98963
 Alpha virt. eigenvalues --    0.99403   1.00166   1.00837   1.01442   1.02189
 Alpha virt. eigenvalues --    1.03342   1.04059   1.04948   1.05553   1.05884
 Alpha virt. eigenvalues --    1.07628   1.08379   1.08973   1.09444   1.10678
 Alpha virt. eigenvalues --    1.11376   1.12243   1.13311   1.13553   1.14427
 Alpha virt. eigenvalues --    1.15173   1.16593   1.17833   1.18499   1.20044
 Alpha virt. eigenvalues --    1.21112   1.21484   1.22551   1.23428   1.23759
 Alpha virt. eigenvalues --    1.24309   1.25400   1.27122   1.29205   1.30941
 Alpha virt. eigenvalues --    1.32661   1.33850   1.35438   1.36201   1.37882
 Alpha virt. eigenvalues --    1.37985   1.39715   1.40678   1.41819   1.44019
 Alpha virt. eigenvalues --    1.45010   1.45858   1.46010   1.47513   1.48945
 Alpha virt. eigenvalues --    1.49678   1.50060   1.51025   1.52177   1.52696
 Alpha virt. eigenvalues --    1.53723   1.54158   1.55082   1.55576   1.55972
 Alpha virt. eigenvalues --    1.56898   1.57932   1.58564   1.58949   1.59366
 Alpha virt. eigenvalues --    1.60447   1.60976   1.61284   1.61868   1.61981
 Alpha virt. eigenvalues --    1.62467   1.63107   1.63218   1.64256   1.64618
 Alpha virt. eigenvalues --    1.65073   1.65878   1.66557   1.67562   1.67782
 Alpha virt. eigenvalues --    1.68526   1.69314   1.69713   1.70816   1.72108
 Alpha virt. eigenvalues --    1.72548   1.74230   1.74699   1.76509   1.76884
 Alpha virt. eigenvalues --    1.77358   1.78449   1.79671   1.80486   1.81227
 Alpha virt. eigenvalues --    1.82387   1.82707   1.84239   1.84880   1.86645
 Alpha virt. eigenvalues --    1.88355   1.88627   1.90100   1.90942   1.92021
 Alpha virt. eigenvalues --    1.93071   1.93230   1.94397   1.95013   1.96614
 Alpha virt. eigenvalues --    1.97145   1.97828   1.98637   1.99064   1.99367
 Alpha virt. eigenvalues --    1.99638   2.01049   2.01874   2.02455   2.03190
 Alpha virt. eigenvalues --    2.04232   2.04866   2.05821   2.06869   2.08035
 Alpha virt. eigenvalues --    2.09598   2.09925   2.11039   2.12611   2.13180
 Alpha virt. eigenvalues --    2.14296   2.14904   2.15528   2.16516   2.18063
 Alpha virt. eigenvalues --    2.18322   2.20744   2.22758   2.23071   2.23995
 Alpha virt. eigenvalues --    2.27280   2.28761   2.29321   2.30222   2.31368
 Alpha virt. eigenvalues --    2.32137   2.33270   2.35557   2.36385   2.37009
 Alpha virt. eigenvalues --    2.39212   2.43005   2.45786   2.49173   2.51848
 Alpha virt. eigenvalues --    2.52261   2.55110   2.55987   2.58086   2.59686
 Alpha virt. eigenvalues --    2.61749   2.61896   2.63751   2.64886   2.66519
 Alpha virt. eigenvalues --    2.67167   2.67997   2.69999   2.71745   2.72235
 Alpha virt. eigenvalues --    2.75754   2.76354   2.76720   2.78076   2.79410
 Alpha virt. eigenvalues --    2.80204   2.81340   2.82028   2.83349   2.85479
 Alpha virt. eigenvalues --    2.85973   2.86258   2.86958   2.87230   2.87343
 Alpha virt. eigenvalues --    2.88481   2.89237   2.90211   2.91783   2.91907
 Alpha virt. eigenvalues --    2.94768   2.96402   2.97892   2.99377   2.99889
 Alpha virt. eigenvalues --    3.00772   3.03112   3.03386   3.04854   3.05784
 Alpha virt. eigenvalues --    3.07126   3.09649   3.13467   3.13804   3.15518
 Alpha virt. eigenvalues --    3.17985   3.19329   3.20669   3.24595   3.25226
 Alpha virt. eigenvalues --    3.27068   3.28200   3.30055   3.32216   3.33650
 Alpha virt. eigenvalues --    3.36200   3.37098   3.42134   3.48036   3.49402
 Alpha virt. eigenvalues --    3.50680   3.52573   3.61325   3.63220   3.65084
 Alpha virt. eigenvalues --    3.66827   3.68071   3.71641   3.74487   3.79267
 Alpha virt. eigenvalues --    3.79876   3.80489   3.83328   3.83537   3.83751
 Alpha virt. eigenvalues --    3.84199   3.84893   3.85313   3.85862   3.86745
 Alpha virt. eigenvalues --    3.86970   3.87160   3.87779   3.88108   3.89454
 Alpha virt. eigenvalues --    3.90319   3.91928   3.92308   3.93148   3.95074
 Alpha virt. eigenvalues --    3.97456   3.98375   3.99200   4.03996   4.09573
 Alpha virt. eigenvalues --    4.12323   4.13330   4.14605   4.20133   4.20876
 Alpha virt. eigenvalues --    4.21596   4.24666   4.25983   4.26356   4.27090
 Alpha virt. eigenvalues --    4.27304   4.33975   4.36827   4.41324   4.58131
 Alpha virt. eigenvalues --    4.63691   4.64652   4.90759   4.94481   4.99457
 Alpha virt. eigenvalues --    5.01397   5.02699   5.03761   5.05276   5.14571
 Alpha virt. eigenvalues --    5.14826   5.64942   6.06252   6.41847   6.44641
 Alpha virt. eigenvalues --    6.45602   6.47240   6.47879   6.48738   6.50731
 Alpha virt. eigenvalues --    6.51692   6.52625   6.54784   6.55531   6.57886
 Alpha virt. eigenvalues --    6.59063   6.60735   6.85955   6.87007   6.88219
 Alpha virt. eigenvalues --    6.89153  14.77689  23.62885  23.69982  23.71289
 Alpha virt. eigenvalues --   23.84331  24.06294  24.07384  24.08357  24.08804
 Alpha virt. eigenvalues --   24.10665  24.11187  24.17376  24.18404  24.20540
 Alpha virt. eigenvalues --   24.23715  24.29431  24.33012  35.74797  50.12840
 Alpha virt. eigenvalues --   66.89766  66.90270  66.92361  66.92590  66.96915
 Alpha virt. eigenvalues --   66.97768
          Condensed to atoms (all electrons):
               1          2          3          4          5          6
     1  C   12.924673  -0.526683  -0.020769  -2.237836  -3.943993  -0.759488
     2  C   -0.526683  11.187144  -0.097526   0.941998  -2.719418  -0.596679
     3  O   -0.020769  -0.097526   8.354352  -0.075046   0.153511  -0.010793
     4  C   -2.237836   0.941998  -0.075046   9.292927  -0.181431  -0.117224
     5  C   -3.943993  -2.719418   0.153511  -0.181431  11.968640   1.436325
     6  C   -0.759488  -0.596679  -0.010793  -0.117224   1.436325   7.845792
     7  C    0.774753  -0.537244  -0.297546  -1.118410   0.505376   0.583849
     8  C    0.022252  -0.078265   0.008718  -1.327379   0.228204   0.767080
     9  H    0.006661  -0.024597  -0.000610  -0.046806   0.022041   0.424079
    10  C    0.231570   0.391733   0.087250   0.905318  -1.561397  -2.228754
    11  H    0.001835  -0.006430   0.000066  -0.017592   0.041913  -0.013368
    12  H   -0.021413  -0.004894  -0.000705   0.070320   0.007595  -0.055825
    13  C    1.060567   0.178834  -0.005772  -0.341414  -0.924851  -0.410900
    14  H   -0.005734   0.018649  -0.001009   0.016105  -0.009982   0.024436
    15  C    0.098567  -2.455200  -0.003610  -0.261568   0.060799  -0.336087
    16  H    0.050126  -0.046402  -0.000085  -0.010058   0.003301  -0.003100
    17  C   -2.995944   1.586388   0.105994   0.612053   0.588841   0.065362
    18  C    1.295423  -1.675364  -0.217007  -0.972561   0.905232  -0.017542
    19  H   -0.006722   0.087054  -0.001392   0.000367  -0.018289  -0.002752
    20  B    0.114555   0.022562  -0.000003  -0.047797  -0.093356  -0.002540
    21  N   -0.168034  -0.157021   0.024378   0.103331   0.085515   0.034034
    22  C    0.106450   0.046008  -0.020337  -0.080831  -0.155983  -0.017487
    23  H    0.015834   0.009505  -0.002423  -0.019025   0.007815   0.002682
    24  H    0.014222   0.001763  -0.000023  -0.003211  -0.029712  -0.000320
    25  H   -0.239908  -0.071569   0.019405   0.132445   0.196969   0.025092
    26  C   -0.060152  -0.066956  -0.016883   0.006144   0.190195  -0.032377
    27  H   -0.009520  -0.005133  -0.001725   0.008051   0.010538  -0.005193
    28  H    0.004178   0.001902   0.002072  -0.010482  -0.001864   0.010386
    29  H    0.009845   0.002483  -0.000191  -0.013603   0.001204  -0.003492
    30  C    0.344670  -0.114983  -0.047362  -0.062631  -0.142134  -0.009897
    31  C    0.398622  -0.067420  -0.001830  -0.004005  -0.089471  -0.007394
    32  F   -0.000952   0.005506   0.000884   0.000387   0.002035   0.000040
    33  F   -0.020484   0.004093   0.018465   0.013829  -0.008232   0.000603
    34  F    0.093886  -0.013248  -0.013733  -0.026529  -0.029291  -0.002790
    35  F   -0.030532   0.000763  -0.000219  -0.001076   0.005448   0.000015
    36  F   -0.019460   0.006340  -0.000247  -0.000100   0.001383   0.000025
    37  F    0.004483  -0.006598  -0.000355  -0.000927   0.002749  -0.000099
               7          8          9         10         11         12
     1  C    0.774753   0.022252   0.006661   0.231570   0.001835  -0.021413
     2  C   -0.537244  -0.078265  -0.024597   0.391733  -0.006430  -0.004894
     3  O   -0.297546   0.008718  -0.000610   0.087250   0.000066  -0.000705
     4  C   -1.118410  -1.327379  -0.046806   0.905318  -0.017592   0.070320
     5  C    0.505376   0.228204   0.022041  -1.561397   0.041913   0.007595
     6  C    0.583849   0.767080   0.424079  -2.228754  -0.013368  -0.055825
     7  C    9.882228  -2.126913   0.022367  -1.253264  -0.014196  -0.058055
     8  C   -2.126913   9.491929  -0.056059   0.221519   0.413438  -0.119949
     9  H    0.022367  -0.056059   0.464951  -0.034144  -0.008477   0.001378
    10  C   -1.253264   0.221519  -0.034144   9.633626  -0.082585   0.540313
    11  H   -0.014196   0.413438  -0.008477  -0.082585   0.457585  -0.014702
    12  H   -0.058055  -0.119949   0.001378   0.540313  -0.014702   0.489887
    13  C    0.095398  -0.343551   0.029307  -0.043292  -0.002061  -0.004509
    14  H   -0.000510   0.024710  -0.001631  -0.002004   0.001084  -0.000335
    15  C    0.056011  -0.313109   0.029325  -0.055784  -0.001008  -0.000564
    16  H    0.001805  -0.001821   0.001386  -0.000165  -0.000047   0.000012
    17  C   -0.258712  -0.046455  -0.002704  -0.065558  -0.000041   0.000512
    18  C   -0.023389   0.011317  -0.000033  -0.220195   0.002902  -0.000711
    19  H   -0.001826  -0.000635  -0.000335  -0.000175   0.000002   0.000006
    20  B    0.012884   0.008747  -0.000070  -0.000534   0.000192   0.000167
    21  N    0.060727  -0.039710   0.000241  -0.358550  -0.001736  -0.020547
    22  C   -0.105790   0.014006   0.000411   0.045512  -0.000349  -0.005852
    23  H    0.009249  -0.003134   0.000022  -0.018291  -0.000301   0.000394
    24  H   -0.002125   0.010130   0.000069   0.029230   0.000036  -0.001578
    25  H   -0.020028  -0.035328  -0.000209  -0.088509  -0.000153   0.003209
    26  C    0.172912  -0.355084  -0.000458  -0.292819   0.000094   0.015881
    27  H    0.021256  -0.021393  -0.000052   0.014936  -0.000096   0.006688
    28  H   -0.033004   0.038844   0.000080   0.007962   0.000671  -0.010813
    29  H   -0.015583   0.001435  -0.000223   0.005629   0.000838  -0.008890
    30  C    0.071007   0.010352  -0.000308   0.013073   0.000113  -0.000548
    31  C    0.021820   0.004116  -0.000240   0.001946   0.000046  -0.000069
    32  F   -0.001440  -0.000076   0.000004   0.000120  -0.000001   0.000006
    33  F   -0.001642  -0.000141  -0.000017  -0.001832   0.000004  -0.000003
    34  F    0.006649  -0.001277   0.000063   0.000554  -0.000006  -0.000024
    35  F   -0.000806  -0.000036   0.000003  -0.000027  -0.000000   0.000001
    36  F   -0.000305  -0.000018   0.000003  -0.000014  -0.000000   0.000000
    37  F   -0.000378  -0.000013   0.000003  -0.000028   0.000000  -0.000000
              13         14         15         16         17         18
     1  C    1.060567  -0.005734   0.098567   0.050126  -2.995944   1.295423
     2  C    0.178834   0.018649  -2.455200  -0.046402   1.586388  -1.675364
     3  O   -0.005772  -0.001009  -0.003610  -0.000085   0.105994  -0.217007
     4  C   -0.341414   0.016105  -0.261568  -0.010058   0.612053  -0.972561
     5  C   -0.924851  -0.009982   0.060799   0.003301   0.588841   0.905232
     6  C   -0.410900   0.024436  -0.336087  -0.003100   0.065362  -0.017542
     7  C    0.095398  -0.000510   0.056011   0.001805  -0.258712  -0.023389
     8  C   -0.343551   0.024710  -0.313109  -0.001821  -0.046455   0.011317
     9  H    0.029307  -0.001631   0.029325   0.001386  -0.002704  -0.000033
    10  C   -0.043292  -0.002004  -0.055784  -0.000165  -0.065558  -0.220195
    11  H   -0.002061   0.001084  -0.001008  -0.000047  -0.000041   0.002902
    12  H   -0.004509  -0.000335  -0.000564   0.000012   0.000512  -0.000711
    13  C    8.326896   0.412723   1.420428  -0.023642  -3.348587   0.198329
    14  H    0.412723   0.439088  -0.100123  -0.010075  -0.033826   0.002696
    15  C    1.420428  -0.100123  15.121917   0.490265  -1.380149  -5.008313
    16  H   -0.023642  -0.010075   0.490265   0.438012  -0.088953  -0.037710
    17  C   -3.348587  -0.033826  -1.380149  -0.088953  13.938185  -2.480585
    18  C    0.198329   0.002696  -5.008313  -0.037710  -2.480585  13.781986
    19  H   -0.069336   0.002123  -0.144018  -0.013548   0.556595  -0.071644
    20  B    0.062795   0.000837  -0.018685  -0.001120  -0.158247   0.317493
    21  N   -0.035883   0.000564  -0.019448  -0.000268   0.026559   0.015470
    22  C    0.019310   0.000070   0.002233   0.000076  -0.029022  -0.009276
    23  H    0.002988  -0.000031   0.001854   0.000027  -0.002569   0.000698
    24  H    0.001187   0.000018  -0.001079  -0.000008  -0.002950  -0.005854
    25  H   -0.037826  -0.000016  -0.004996  -0.000184   0.076200   0.031412
    26  C   -0.011856   0.000045  -0.000931  -0.000025   0.004916   0.011447
    27  H   -0.000985  -0.000008   0.000011  -0.000001   0.000707   0.001693
    28  H    0.000281  -0.000006   0.000058   0.000000   0.000016   0.000039
    29  H    0.000683   0.000055  -0.000011   0.000001  -0.000432  -0.000964
    30  C    0.075483   0.001228  -0.032756  -0.000908  -0.281299  -0.254007
    31  C    0.041858   0.000885  -0.415396  -0.002192  -0.607316   0.301661
    32  F   -0.001395  -0.000012   0.001225   0.000039   0.027735   0.009125
    33  F   -0.003162  -0.000020  -0.000302   0.000004   0.019552   0.010504
    34  F    0.005489  -0.000035   0.010189   0.000187  -0.021181  -0.008170
    35  F   -0.001503  -0.000031   0.022246   0.000148   0.094663  -0.051412
    36  F    0.002414   0.000004   0.054583   0.000092   0.018578  -0.042906
    37  F   -0.011000  -0.000058   0.015364   0.000501   0.020878  -0.018907
              19         20         21         22         23         24
     1  C   -0.006722   0.114555  -0.168034   0.106450   0.015834   0.014222
     2  C    0.087054   0.022562  -0.157021   0.046008   0.009505   0.001763
     3  O   -0.001392  -0.000003   0.024378  -0.020337  -0.002423  -0.000023
     4  C    0.000367  -0.047797   0.103331  -0.080831  -0.019025  -0.003211
     5  C   -0.018289  -0.093356   0.085515  -0.155983   0.007815  -0.029712
     6  C   -0.002752  -0.002540   0.034034  -0.017487   0.002682  -0.000320
     7  C   -0.001826   0.012884   0.060727  -0.105790   0.009249  -0.002125
     8  C   -0.000635   0.008747  -0.039710   0.014006  -0.003134   0.010130
     9  H   -0.000335  -0.000070   0.000241   0.000411   0.000022   0.000069
    10  C   -0.000175  -0.000534  -0.358550   0.045512  -0.018291   0.029230
    11  H    0.000002   0.000192  -0.001736  -0.000349  -0.000301   0.000036
    12  H    0.000006   0.000167  -0.020547  -0.005852   0.000394  -0.001578
    13  C   -0.069336   0.062795  -0.035883   0.019310   0.002988   0.001187
    14  H    0.002123   0.000837   0.000564   0.000070  -0.000031   0.000018
    15  C   -0.144018  -0.018685  -0.019448   0.002233   0.001854  -0.001079
    16  H   -0.013548  -0.001120  -0.000268   0.000076   0.000027  -0.000008
    17  C    0.556595  -0.158247   0.026559  -0.029022  -0.002569  -0.002950
    18  C   -0.071644   0.317493   0.015470  -0.009276   0.000698  -0.005854
    19  H    0.488225  -0.049411   0.000244   0.000013   0.000004  -0.000025
    20  B   -0.049411   4.058334   0.005032   0.026016   0.002552   0.002025
    21  N    0.000244   0.005032   7.094756   0.249687  -0.079281  -0.050387
    22  C    0.000013   0.026016   0.249687   5.562828   0.447628   0.390324
    23  H    0.000004   0.002552  -0.079281   0.447628   0.608744  -0.067630
    24  H   -0.000025   0.002025  -0.050387   0.390324  -0.067630   0.581045
    25  H   -0.000475  -0.071220  -0.035901   0.167962  -0.096223  -0.026467
    26  C    0.000001  -0.000093   0.341371  -0.190205  -0.008311  -0.013528
    27  H   -0.000002  -0.000638  -0.063572  -0.005987  -0.008284  -0.001852
    28  H   -0.000002  -0.000051  -0.039050  -0.011613   0.016181   0.004167
    29  H    0.000000  -0.000035  -0.056972   0.014264   0.000245  -0.001727
    30  C   -0.008214   0.340772  -0.008706   0.006224   0.001836   0.008588
    31  C    0.003933   0.400694   0.000698   0.002725   0.000154   0.000719
    32  F   -0.000242  -0.089004  -0.000052   0.002345   0.000146   0.000035
    33  F    0.000585  -0.051287   0.000006   0.013124   0.003236  -0.003494
    34  F   -0.001055  -0.084846  -0.000679  -0.018482  -0.004733  -0.001308
    35  F    0.002387  -0.092599  -0.000010  -0.000249  -0.000011  -0.000138
    36  F   -0.001134  -0.042160  -0.000004  -0.000091  -0.000004  -0.000006
    37  F    0.000866  -0.068687   0.000006  -0.000094  -0.000002  -0.000019
              25         26         27         28         29         30
     1  C   -0.239908  -0.060152  -0.009520   0.004178   0.009845   0.344670
     2  C   -0.071569  -0.066956  -0.005133   0.001902   0.002483  -0.114983
     3  O    0.019405  -0.016883  -0.001725   0.002072  -0.000191  -0.047362
     4  C    0.132445   0.006144   0.008051  -0.010482  -0.013603  -0.062631
     5  C    0.196969   0.190195   0.010538  -0.001864   0.001204  -0.142134
     6  C    0.025092  -0.032377  -0.005193   0.010386  -0.003492  -0.009897
     7  C   -0.020028   0.172912   0.021256  -0.033004  -0.015583   0.071007
     8  C   -0.035328  -0.355084  -0.021393   0.038844   0.001435   0.010352
     9  H   -0.000209  -0.000458  -0.000052   0.000080  -0.000223  -0.000308
    10  C   -0.088509  -0.292819   0.014936   0.007962   0.005629   0.013073
    11  H   -0.000153   0.000094  -0.000096   0.000671   0.000838   0.000113
    12  H    0.003209   0.015881   0.006688  -0.010813  -0.008890  -0.000548
    13  C   -0.037826  -0.011856  -0.000985   0.000281   0.000683   0.075483
    14  H   -0.000016   0.000045  -0.000008  -0.000006   0.000055   0.001228
    15  C   -0.004996  -0.000931   0.000011   0.000058  -0.000011  -0.032756
    16  H   -0.000184  -0.000025  -0.000001   0.000000   0.000001  -0.000908
    17  C    0.076200   0.004916   0.000707   0.000016  -0.000432  -0.281299
    18  C    0.031412   0.011447   0.001693   0.000039  -0.000964  -0.254007
    19  H   -0.000475   0.000001  -0.000002  -0.000002   0.000000  -0.008214
    20  B   -0.071220  -0.000093  -0.000638  -0.000051  -0.000035   0.340772
    21  N   -0.035901   0.341371  -0.063572  -0.039050  -0.056972  -0.008706
    22  C    0.167962  -0.190205  -0.005987  -0.011613   0.014264   0.006224
    23  H   -0.096223  -0.008311  -0.008284   0.016181   0.000245   0.001836
    24  H   -0.026467  -0.013528  -0.001852   0.004167  -0.001727   0.008588
    25  H    0.915628   0.013703   0.015012  -0.003527  -0.003610  -0.060271
    26  C    0.013703   5.453995   0.409532   0.380909   0.426464  -0.002064
    27  H    0.015012   0.409532   0.508372  -0.049903  -0.006160  -0.000147
    28  H   -0.003527   0.380909  -0.049903   0.578928  -0.049529  -0.000190
    29  H   -0.003610   0.426464  -0.006160  -0.049529   0.534759   0.000254
    30  C   -0.060271  -0.002064  -0.000147  -0.000190   0.000254   5.664780
    31  C   -0.012322  -0.000530  -0.000095  -0.000008   0.000030   0.040993
    32  F   -0.002861  -0.000051   0.000000   0.000001  -0.000007   0.185564
    33  F   -0.000708  -0.001784  -0.000194  -0.000051   0.000003   0.234101
    34  F    0.052957  -0.000020   0.000143   0.000072  -0.000002   0.233820
    35  F    0.001150   0.000008   0.000008   0.000000  -0.000002  -0.000416
    36  F    0.000543   0.000001   0.000000   0.000000  -0.000000  -0.015624
    37  F    0.000677  -0.000002   0.000000   0.000000  -0.000000   0.014487
              31         32         33         34         35         36
     1  C    0.398622  -0.000952  -0.020484   0.093886  -0.030532  -0.019460
     2  C   -0.067420   0.005506   0.004093  -0.013248   0.000763   0.006340
     3  O   -0.001830   0.000884   0.018465  -0.013733  -0.000219  -0.000247
     4  C   -0.004005   0.000387   0.013829  -0.026529  -0.001076  -0.000100
     5  C   -0.089471   0.002035  -0.008232  -0.029291   0.005448   0.001383
     6  C   -0.007394   0.000040   0.000603  -0.002790   0.000015   0.000025
     7  C    0.021820  -0.001440  -0.001642   0.006649  -0.000806  -0.000305
     8  C    0.004116  -0.000076  -0.000141  -0.001277  -0.000036  -0.000018
     9  H   -0.000240   0.000004  -0.000017   0.000063   0.000003   0.000003
    10  C    0.001946   0.000120  -0.001832   0.000554  -0.000027  -0.000014
    11  H    0.000046  -0.000001   0.000004  -0.000006  -0.000000  -0.000000
    12  H   -0.000069   0.000006  -0.000003  -0.000024   0.000001   0.000000
    13  C    0.041858  -0.001395  -0.003162   0.005489  -0.001503   0.002414
    14  H    0.000885  -0.000012  -0.000020  -0.000035  -0.000031   0.000004
    15  C   -0.415396   0.001225  -0.000302   0.010189   0.022246   0.054583
    16  H   -0.002192   0.000039   0.000004   0.000187   0.000148   0.000092
    17  C   -0.607316   0.027735   0.019552  -0.021181   0.094663   0.018578
    18  C    0.301661   0.009125   0.010504  -0.008170  -0.051412  -0.042906
    19  H    0.003933  -0.000242   0.000585  -0.001055   0.002387  -0.001134
    20  B    0.400694  -0.089004  -0.051287  -0.084846  -0.092599  -0.042160
    21  N    0.000698  -0.000052   0.000006  -0.000679  -0.000010  -0.000004
    22  C    0.002725   0.002345   0.013124  -0.018482  -0.000249  -0.000091
    23  H    0.000154   0.000146   0.003236  -0.004733  -0.000011  -0.000004
    24  H    0.000719   0.000035  -0.003494  -0.001308  -0.000138  -0.000006
    25  H   -0.012322  -0.002861  -0.000708   0.052957   0.001150   0.000543
    26  C   -0.000530  -0.000051  -0.001784  -0.000020   0.000008   0.000001
    27  H   -0.000095   0.000000  -0.000194   0.000143   0.000008   0.000000
    28  H   -0.000008   0.000001  -0.000051   0.000072   0.000000   0.000000
    29  H    0.000030  -0.000007   0.000003  -0.000002  -0.000002  -0.000000
    30  C    0.040993   0.185564   0.234101   0.233820  -0.000416  -0.015624
    31  C    5.622817  -0.016828  -0.023250  -0.000657   0.182313   0.219455
    32  F   -0.016828   8.985451  -0.025691  -0.037295   0.000226   0.007841
    33  F   -0.023250  -0.025691   8.891927  -0.035179   0.002865   0.000139
    34  F   -0.000657  -0.037295  -0.035179   8.949149   0.001518  -0.002165
    35  F    0.182313   0.000226   0.002865   0.001518   8.980536  -0.026456
    36  F    0.219455   0.007841   0.000139  -0.002165  -0.026456   8.923793
    37  F    0.181334   0.001567  -0.000743  -0.000292  -0.038320  -0.036389
              37
     1  C    0.004483
     2  C   -0.006598
     3  O   -0.000355
     4  C   -0.000927
     5  C    0.002749
     6  C   -0.000099
     7  C   -0.000378
     8  C   -0.000013
     9  H    0.000003
    10  C   -0.000028
    11  H    0.000000
    12  H   -0.000000
    13  C   -0.011000
    14  H   -0.000058
    15  C    0.015364
    16  H    0.000501
    17  C    0.020878
    18  C   -0.018907
    19  H    0.000866
    20  B   -0.068687
    21  N    0.000006
    22  C   -0.000094
    23  H   -0.000002
    24  H   -0.000019
    25  H    0.000677
    26  C   -0.000002
    27  H    0.000000
    28  H    0.000000
    29  H   -0.000000
    30  C    0.014487
    31  C    0.181334
    32  F    0.001567
    33  F   -0.000743
    34  F   -0.000292
    35  F   -0.038320
    36  F   -0.036389
    37  F    9.007804
 Mulliken charges:
               1
     1  C   -0.505547
     2  C    0.778905
     3  O    0.062106
     4  C    0.874269
     5  C   -0.516223
     6  C   -0.585699
     7  C   -0.427125
     8  C   -0.406452
     9  H    0.174576
    10  C    0.177630
    11  H    0.242328
    12  H    0.193616
    13  C   -0.313444
    14  H    0.220124
    15  C   -0.831940
    16  H    0.254331
    17  C    0.060795
    18  C    0.219117
    19  H    0.248827
    20  B    0.496726
    21  N    0.093195
    22  C   -0.465566
    23  H    0.178458
    24  H    0.169880
    25  H    0.159949
    26  C   -0.373489
    27  H    0.183991
    28  H    0.163345
    29  H    0.163241
    30  C   -0.204880
    31  C   -0.177796
    32  F   -0.054375
    33  F   -0.034823
    34  F   -0.051677
    35  F   -0.050453
    36  F   -0.048110
    37  F   -0.067808
 Sum of Mulliken charges =  -0.00000
 Mulliken charges with hydrogens summed into heavy atoms:
               1
     1  C   -0.505547
     2  C    0.778905
     3  O    0.062106
     4  C    0.874269
     5  C   -0.516223
     6  C   -0.411122
     7  C   -0.427125
     8  C   -0.164124
    10  C    0.371246
    13  C   -0.093320
    15  C   -0.577608
    17  C    0.309623
    18  C    0.219117
    20  B    0.496726
    21  N    0.093195
    22  C    0.042721
    26  C    0.137088
    30  C   -0.204880
    31  C   -0.177796
    32  F   -0.054375
    33  F   -0.034823
    34  F   -0.051677
    35  F   -0.050453
    36  F   -0.048110
    37  F   -0.067808
 Electronic spatial extent (au):  <R**2>=          16091.3259
 Charge=             -0.0000 electrons
 Dipole moment (field-independent basis, Debye):
    X=             -1.3462    Y=              3.1142    Z=             -4.4974  Tot=              5.6336
 Quadrupole moment (field-independent basis, Debye-Ang):
   XX=           -148.2092   YY=           -120.9740   ZZ=           -142.2947
   XY=             -4.4350   XZ=            -16.8279   YZ=              3.5983
 Traceless Quadrupole moment (field-independent basis, Debye-Ang):
   XX=            -11.0499   YY=             16.1853   ZZ=             -5.1354
   XY=             -4.4350   XZ=            -16.8279   YZ=              3.5983
 Octapole moment (field-independent basis, Debye-Ang**2):
  XXX=           -868.8503  YYY=           -912.9823  ZZZ=           -506.6317  XYY=           -325.4256
  XXY=           -377.9164  XXZ=           -196.9929  XZZ=           -308.0646  YZZ=           -316.7007
  YYZ=           -114.4988  XYZ=             -3.1071
 Hexadecapole moment (field-independent basis, Debye-Ang**3):
 XXXX=          -5136.4191 YYYY=          -9961.6396 ZZZZ=          -4429.8005 XXXY=           -951.9184
 XXXZ=          -1366.0099 YYYX=          -1179.8745 YYYZ=           -380.9171 ZZZX=          -1426.7944
 ZZZY=           -687.0994 XXYY=          -2792.6083 XXZZ=          -1698.4755 YYZZ=          -2338.2857
 XXYZ=           -209.7989 YYXZ=           -420.2650 ZZXY=           -299.5658
 N-N= 2.306625211212D+03 E-N=-7.837305892681D+03  KE= 1.366338562357D+03
 Breneman (CHELPG) radii used.
 Generate Potential Derived Charges using the Breneman model, NDens= 1.
 Grid spacing= 0.300 Box extension= 2.800
 NStep X,Y,Z=   40     52     45   Total possible points=       93600
 Number of Points to Fit=   20559

 **********************************************************************

            Electrostatic Properties Using The SCF Density.

 **********************************************************************

       Atomic Center    1 is at   2.127564  2.188923  0.199702
       Atomic Center    2 is at   1.972324  2.572501 -1.135925
       Atomic Center    3 is at   1.604711  3.111785  1.036215
       Atomic Center    4 is at   1.305372  3.859567 -1.100410
       Atomic Center    5 is at   1.114598  4.131030  0.250499
       Atomic Center    6 is at   0.831081  4.741108 -2.072513
       Atomic Center    7 is at   0.460797  5.272445  0.736143
       Atomic Center    8 is at   0.173850  5.873245 -1.627922
       Atomic Center    9 is at   0.963710  4.541065 -3.128543
       Atomic Center   10 is at  -0.002419  6.135553 -0.263573
       Atomic Center   11 is at  -0.213322  6.587245 -2.345818
       Atomic Center   12 is at  -0.515254  7.044765  0.021072
       Atomic Center   13 is at   2.418220  1.727338 -2.143999
       Atomic Center   14 is at   2.313116  2.007996 -3.185921
       Atomic Center   15 is at   2.990789  0.507881 -1.794803
       Atomic Center   16 is at   3.340755 -0.164075 -2.568528
       Atomic Center   17 is at   3.108182  0.133864 -0.462145
       Atomic Center   18 is at   2.700136  0.971592  0.602369
       Atomic Center   19 is at   3.554313 -0.826189 -0.237181
       Atomic Center   20 is at   2.972354  0.576799  2.042631
       Atomic Center   21 is at   0.249417  5.474530  2.100626
       Atomic Center   22 is at   1.424852  5.419587  2.964339
       Atomic Center   23 is at   2.023053  6.340371  2.885903
       Atomic Center   24 is at   1.099993  5.303646  4.000157
       Atomic Center   25 is at   2.052905  4.570339  2.713501
       Atomic Center   26 is at  -0.659583  6.540908  2.471597
       Atomic Center   27 is at  -0.869382  6.458297  3.539413
       Atomic Center   28 is at  -0.246099  7.544946  2.283110
       Atomic Center   29 is at  -1.603238  6.441291  1.932321
       Atomic Center   30 is at   3.168959  1.651225  3.241124
       Atomic Center   31 is at   3.163434 -0.968851  2.491351
       Atomic Center   32 is at   3.944714  1.185937  4.242312
       Atomic Center   33 is at   1.980228  1.979316  3.789695
       Atomic Center   34 is at   3.753674  2.795069  2.830268
       Atomic Center   35 is at   2.654327 -1.213906  3.713978
       Atomic Center   36 is at   4.482023 -1.275221  2.536410
       Atomic Center   37 is at   2.588408 -1.865672  1.665313
   20559 points will be used for fitting atomic charges
 Fitting point charges to electrostatic potential
 Charges from ESP fit, RMS=   0.00420 RRMS=   0.28361:
 ESP charges:
               1
     1  C    0.357621
     2  C   -0.030804
     3  O   -0.303201
     4  C    0.074949
     5  C    0.023658
     6  C   -0.246456
     7  C    0.349711
     8  C   -0.101559
     9  H    0.148434
    10  C   -0.267807
    11  H    0.118948
    12  H    0.151672
    13  C   -0.089505
    14  H    0.140040
    15  C   -0.151421
    16  H    0.126526
    17  C   -0.067941
    18  C   -0.248533
    19  H    0.124381
    20  B    0.141086
    21  N   -0.378634
    22  C    0.003673
    23  H    0.018491
    24  H    0.078331
    25  H    0.097223
    26  C   -0.087379
    27  H    0.093033
    28  H    0.060765
    29  H    0.062641
    30  C    0.754148
    31  C    0.771732
    32  F   -0.283322
    33  F   -0.278472
    34  F   -0.303424
    35  F   -0.287392
    36  F   -0.285616
    37  F   -0.285595
 Sum of ESP charges =   0.00000
 ESP charges with hydrogens summed into heavy atoms:
               1
     1  C    0.357621
     2  C   -0.030804
     3  O   -0.303201
     4  C    0.074949
     5  C    0.023658
     6  C   -0.098022
     7  C    0.349711
     8  C    0.017390
    10  C   -0.116136
    13  C    0.050534
    15  C   -0.024895
    17  C    0.056440
    18  C   -0.248533
    20  B    0.141086
    21  N   -0.378634
    22  C    0.197718
    26  C    0.129060
    30  C    0.754148
    31  C    0.771732
    32  F   -0.283322
    33  F   -0.278472
    34  F   -0.303424
    35  F   -0.287392
    36  F   -0.285616
    37  F   -0.285595
 Charge=   0.00000 Dipole=    -1.3958     3.3114    -4.7306 Tot=     5.9407
 -----------------------------------------------------------------

              Electrostatic Properties (Atomic Units)

 -----------------------------------------------------------------
    Center     Electric         -------- Electric Field --------
               Potential          X             Y             Z
 -----------------------------------------------------------------
    1 Atom    -14.681156
    2 Atom    -14.739559
    3 Atom    -22.285096
    4 Atom    -14.748227
    5 Atom    -14.703945
    6 Atom    -14.760663
    7 Atom    -14.716898
    8 Atom    -14.762194
    9 Atom     -1.086583
   10 Atom    -14.764036
   11 Atom     -1.095664
   12 Atom     -1.091574
   13 Atom    -14.728884
   14 Atom     -1.065226
   15 Atom    -14.746228
   16 Atom     -1.078245
   17 Atom    -14.733487
   18 Atom    -14.745891
   19 Atom     -1.078505
   20 Atom    -11.397714
   21 Atom    -18.369925
   22 Atom    -14.751814
   23 Atom     -1.118417
   24 Atom     -1.115129
   25 Atom     -1.118270
   26 Atom    -14.741252
   27 Atom     -1.103693
   28 Atom     -1.107428
   29 Atom     -1.103247
   30 Atom    -14.528759
   31 Atom    -14.526068
   32 Atom    -26.574082
   33 Atom    -26.568528
   34 Atom    -26.568765
   35 Atom    -26.569712
   36 Atom    -26.565040
   37 Atom    -26.565104
 -----------------------------------------------------------------
 Unable to Open any file for archive entry.
 1\1\GINC-IRENE4047\SP\RwB97XD\GenECP\C16H12B1F6N1O1\PENASFRA\11-Apr-20
 24\0\\# wb97xd/genecp scrf=(solvent=toluene,pcm) nosymm pop=(chelpg) s
 cfcyc=300\\cf3_dibenzofuran_chelpg\\0,1\C,0,2.127564,2.188923,0.199702
 \C,0,1.972324,2.572501,-1.135925\O,0,1.604711,3.111785,1.036215\C,0,1.
 305372,3.859567,-1.10041\C,0,1.114598,4.13103,0.250499\C,0,0.831081,4.
 741108,-2.072513\C,0,0.460797,5.272445,0.736143\C,0,0.17385,5.873245,-
 1.627922\H,0,0.96371,4.541065,-3.128543\C,0,-0.002419,6.135553,-0.2635
 73\H,0,-0.213322,6.587245,-2.345818\H,0,-0.515254,7.044765,0.021072\C,
 0,2.41822,1.727338,-2.143999\H,0,2.313116,2.007996,-3.185921\C,0,2.990
 789,0.507881,-1.794803\H,0,3.340755,-0.164075,-2.568528\C,0,3.108182,0
 .133864,-0.462145\C,0,2.700136,0.971592,0.602369\H,0,3.554313,-0.82618
 9,-0.237181\B,0,2.972354,0.576799,2.042631\N,0,0.249417,5.47453,2.1006
 26\C,0,1.424852,5.419587,2.964339\H,0,2.023053,6.340371,2.885903\H,0,1
 .099993,5.303646,4.000157\H,0,2.052905,4.570339,2.713501\C,0,-0.659583
 ,6.540908,2.471597\H,0,-0.869382,6.458297,3.539413\H,0,-0.246099,7.544
 946,2.28311\H,0,-1.603238,6.441291,1.932321\C,0,3.168959,1.651225,3.24
 1124\C,0,3.163434,-0.968851,2.491351\F,0,3.944714,1.185937,4.242312\F,
 0,1.980228,1.979316,3.789695\F,0,3.753674,2.795069,2.830268\F,0,2.6543
 27,-1.213906,3.713978\F,0,4.482023,-1.275221,2.53641\F,0,2.588408,-1.8
 65672,1.665313\\Version=AS64L-G16RevC.02\HF=-1370.7931255\RMSD=6.208e-
 09\Dipole=-0.5296496,1.2252172,-1.769429\Quadrupole=-8.2153641,12.0333
 886,-3.8180245,-3.2973217,-12.5111151,2.6752812\PG=C01 [X(C16H12B1F6N1
 O1)]\\@
 The archive entry for this job was punched.


 A MUSTACHE HAIR ACROSS A CHIP IS LIKE A REDWOOD
 TREE FALLING THROUGH A HOUSING PROJECT.
 - AN IBM MANAGER IN EAST FISHKILL, NEW YORK
   AS QUOTED IN "FROM SANDS TO CIRCUITS", IBM INNOVATION JANUARY 1985.
 Job cpu time:       0 days  2 hours  1 minutes 52.3 seconds.
 Elapsed time:       0 days  0 hours  1 minutes 16.5 seconds.
 File lengths (MBytes):  RWF=    354 Int=      0 D2E=      0 Chk=     25 Scr=      1
 Normal termination of Gaussian 16 at Thu Apr 11 15:44:55 2024.
