 Entering Gaussian System, Link 0=/ccc/products/gaussian-16-C.02/system/default/g16/g16
 Input=cl_dimethylaniline_chelpg.gjf
 Output=cl_dimethylaniline_chelpg.log
 Initial command:
 /ccc/products/gaussian-16-C.02/system/default/g16/l1.exe "/ccc/scratch/cont003/gen7343/penasfra/flp/b-n_flp/cl_dimethylaniline/Reactant/Gau-166053.inp" -scrdir="/ccc/scratch/cont003/gen7343/penasfra/flp/b-n_flp/cl_dimethylaniline/Reactant/"
 Entering Link 1 = /ccc/products/gaussian-16-C.02/system/default/g16/l1.exe PID=    166102.
  
 Copyright (c) 1988-2021, Gaussian, Inc.  All Rights Reserved.
  
 This is part of the Gaussian(R) 16 program.  It is based on
 the Gaussian(R) 09 system (copyright 2009, Gaussian, Inc.),
 the Gaussian(R) 03 system (copyright 2003, Gaussian, Inc.),
 the Gaussian(R) 98 system (copyright 1998, Gaussian, Inc.),
 the Gaussian(R) 94 system (copyright 1995, Gaussian, Inc.),
 the Gaussian 92(TM) system (copyright 1992, Gaussian, Inc.),
 the Gaussian 90(TM) system (copyright 1990, Gaussian, Inc.),
 the Gaussian 88(TM) system (copyright 1988, Gaussian, Inc.),
 the Gaussian 86(TM) system (copyright 1986, Carnegie Mellon
 University), and the Gaussian 82(TM) system (copyright 1983,
 Carnegie Mellon University). Gaussian is a federally registered
 trademark of Gaussian, Inc.
  
 This software contains proprietary and confidential information,
 including trade secrets, belonging to Gaussian, Inc.
  
 This software is provided under written license and may be
 used, copied, transmitted, or stored only in accord with that
 written license.
  
 The following legend is applicable only to US Government
 contracts under FAR:
  
                    RESTRICTED RIGHTS LEGEND
  
 Use, reproduction and disclosure by the US Government is
 subject to restrictions as set forth in subparagraphs (a)
 and (c) of the Commercial Computer Software - Restricted
 Rights clause in FAR 52.227-19.
  
 Gaussian, Inc.
 340 Quinnipiac St., Bldg. 40, Wallingford CT 06492
  
  
 ---------------------------------------------------------------
 Warning -- This program may not be used in any manner that
 competes with the business of Gaussian, Inc. or will provide
 assistance to any competitor of Gaussian, Inc.  The licensee
 of this program is prohibited from giving any competitor of
 Gaussian, Inc. access to this program.  By using this program,
 the user acknowledges that Gaussian, Inc. is engaged in the
 business of creating and licensing software in the field of
 computational chemistry and represents and warrants to the
 licensee that it is not a competitor of Gaussian, Inc. and that
 it will not use this program in any manner prohibited above.
 ---------------------------------------------------------------
  

 Cite this work as:
 Gaussian 16, Revision C.02,
 M. J. Frisch, G. W. Trucks, H. B. Schlegel, G. E. Scuseria, 
 M. A. Robb, J. R. Cheeseman, G. Scalmani, V. Barone, 
 G. A. Petersson, H. Nakatsuji, X. Li, M. Caricato, A. V. Marenich, 
 J. Bloino, B. G. Janesko, R. Gomperts, B. Mennucci, H. P. Hratchian, 
 J. V. Ortiz, A. F. Izmaylov, J. L. Sonnenberg, D. Williams-Young, 
 F. Ding, F. Lipparini, F. Egidi, J. Goings, B. Peng, A. Petrone, 
 T. Henderson, D. Ranasinghe, V. G. Zakrzewski, J. Gao, N. Rega, 
 G. Zheng, W. Liang, M. Hada, M. Ehara, K. Toyota, R. Fukuda, 
 J. Hasegawa, M. Ishida, T. Nakajima, Y. Honda, O. Kitao, H. Nakai, 
 T. Vreven, K. Throssell, J. A. Montgomery, Jr., J. E. Peralta, 
 F. Ogliaro, M. J. Bearpark, J. J. Heyd, E. N. Brothers, K. N. Kudin, 
 V. N. Staroverov, T. A. Keith, R. Kobayashi, J. Normand, 
 K. Raghavachari, A. P. Rendell, J. C. Burant, S. S. Iyengar, 
 J. Tomasi, M. Cossi, J. M. Millam, M. Klene, C. Adamo, R. Cammi, 
 J. W. Ochterski, R. L. Martin, K. Morokuma, O. Farkas, 
 J. B. Foresman, and D. J. Fox, Gaussian, Inc., Wallingford CT, 2019.
 
 ******************************************
 Gaussian 16:  AS64L-G16RevC.02  7-Dec-2021
                10-Apr-2024 
 ******************************************
 %nprocshared=128
 Will use up to  128 processors via shared memory.
 %mem=30GB
 %chk=cl_dimethylaniline_chelpg.chk
 ----------------------------------------------------------------------
 # wb97xd/genecp scrf=(solvent=toluene,pcm) nosymm pop=(chelpg) scfcyc=
 300
 ----------------------------------------------------------------------
 1/38=1,172=1/1;
 2/12=2,15=1,17=6,18=5,40=1/2;
 3/5=7,11=2,16=1,17=8,25=1,30=1,70=2201,72=13,74=-58/1,2,3;
 4//1;
 5/5=2,7=300,38=5,53=13/2;
 6/7=2,8=2,9=2,10=2,15=8,20=3,28=1/1,2;
 99/5=1,9=1/99;
 -------------------------
 cl_dimethylaniline_chelpg
 -------------------------
 Symbolic Z-matrix:
 Charge =  0 Multiplicity = 1
 C                    -0.6518    0.90203   0.75794 
 C                     0.71775   1.06327   0.87167 
 C                     1.37972   2.21083   0.39794 
 C                     0.5959    3.2794   -0.11884 
 C                    -0.79061   3.09042  -0.25539 
 C                    -1.39577   1.91905   0.16751 
 H                    -1.13048  -0.00355   1.10983 
 H                     1.30705   0.25918   1.29862 
 H                    -1.40853   3.88166  -0.65843 
 H                    -2.47006   1.81312   0.05981 
 N                     1.18091   4.48229  -0.47397 
 B                     2.91051   2.10557   0.27066 
 C                     2.17047   5.11098   0.38607 
 H                     2.47617   4.43454   1.18432 
 H                     3.06002   5.40374  -0.17907 
 H                     1.74441   6.00659   0.85744 
 C                     0.43433   5.43234  -1.27175 
 H                    -0.05611   4.93069  -2.10703 
 H                    -0.32182   5.97913  -0.6877 
 H                     1.13384   6.16155  -1.68506 
 Cl                    3.80964   2.69384  -1.13692 
 Cl                    3.87937   1.24415   1.48366 
 
                          Input orientation:                          
 ---------------------------------------------------------------------
 Center     Atomic      Atomic             Coordinates (Angstroms)
 Number     Number       Type             X           Y           Z
 ---------------------------------------------------------------------
      1          6           0       -0.651803    0.902026    0.757942
      2          6           0        0.717753    1.063266    0.871673
      3          6           0        1.379717    2.210832    0.397937
      4          6           0        0.595903    3.279395   -0.118843
      5          6           0       -0.790605    3.090420   -0.255385
      6          6           0       -1.395772    1.919045    0.167513
      7          1           0       -1.130477   -0.003548    1.109827
      8          1           0        1.307045    0.259180    1.298620
      9          1           0       -1.408526    3.881663   -0.658426
     10          1           0       -2.470063    1.813124    0.059806
     11          7           0        1.180909    4.482291   -0.473969
     12          5           0        2.910513    2.105572    0.270658
     13          6           0        2.170471    5.110979    0.386072
     14          1           0        2.476173    4.434535    1.184315
     15          1           0        3.060025    5.403738   -0.179074
     16          1           0        1.744412    6.006594    0.857441
     17          6           0        0.434330    5.432342   -1.271751
     18          1           0       -0.056107    4.930694   -2.107027
     19          1           0       -0.321816    5.979130   -0.687695
     20          1           0        1.133845    6.161546   -1.685056
     21         17           0        3.809636    2.693843   -1.136921
     22         17           0        3.879369    1.244154    1.483656
 ---------------------------------------------------------------------
                    Distance matrix (angstroms):
                    1          2          3          4          5
     1  C    0.000000
     2  C    1.383697   0.000000
     3  C    2.443287   1.406958   0.000000
     4  C    2.824430   2.430473   1.422411   0.000000
     5  C    2.415609   2.766723   2.431214   1.405973   0.000000
     6  C    1.391554   2.386459   2.800281   2.428852   1.384626
     7  H    1.083059   2.147269   3.422184   3.907395   3.398817
     8  H    2.131354   1.084483   2.150687   3.411249   3.851102
     9  H    3.384814   3.847808   3.417876   2.161391   1.081820
    10  H    2.150247   3.373957   3.885011   3.403236   2.133403
    11  N    4.206511   3.703377   2.441162   1.383946   2.423211
    12  B    3.791578   2.501163   1.539680   2.624308   3.865866
    13  C    5.081221   4.327838   3.006041   2.467570   3.641716
    14  H    4.737578   3.815133   2.601050   2.562808   3.814606
    15  H    5.909406   5.042817   3.653905   3.253976   4.492729
    16  H    5.639890   5.048834   3.840827   3.116058   4.021040
    17  C    5.081644   4.874774   3.749632   2.447546   2.831619
    18  H    4.979264   4.942521   3.966621   2.665480   2.711950
    19  H    5.289210   5.260993   4.274796   2.907640   2.958260
    20  H    6.067893   5.718606   4.472969   3.324034   3.896060
    21  Cl   5.167741   4.031497   2.914377   3.421613   4.700702
    22  Cl   4.601655   3.225377   2.891628   4.182267   5.314284
                    6          7          8          9         10
     6  C    0.000000
     7  H    2.157476   0.000000
     8  H    3.367458   2.458899   0.000000
     9  H    2.129368   4.277721   4.932214   0.000000
    10  H    1.084860   2.489444   4.268014   2.433428   0.000000
    11  N    3.690666   5.289014   4.581774   2.664574   4.554005
    12  B    4.311557   4.634889   2.652730   4.761491   5.392642
    13  C    4.791065   6.130128   5.011806   3.925737   5.702355
    14  H    4.727952   5.719270   4.337455   4.335003   5.709778
    15  H    5.667216   6.961344   5.632317   4.744938   6.597836
    16  H    5.200463   6.667120   5.780891   4.093190   5.998601
    17  C    4.214737   6.137543   5.842092   2.485335   4.827762
    18  H    4.004780   5.987417   5.939668   2.242309   4.499066
    19  H    4.285913   6.299004   6.270284   2.362449   4.746507
    20  H    5.275395   7.137710   6.615908   3.565878   5.911131
    21  Cl   5.422004   6.060405   4.257042   5.372996   6.453095
    22  Cl   5.478579   5.176395   2.760663   6.285444   6.531949
                   11         12         13         14         15
    11  N    0.000000
    12  B    3.032292   0.000000
    13  C    1.454012   3.097330   0.000000
    14  H    2.104732   2.539191   1.090056   0.000000
    15  H    2.113553   3.332043   1.093803   1.771741   0.000000
    16  H    2.100878   4.113645   1.098108   1.764565   1.780066
    17  C    1.447906   4.424693   2.421949   3.346192   2.844123
    18  H    2.097177   4.736616   3.347491   4.182290   3.694733
    19  H    2.131757   5.135255   2.849238   3.703908   3.467942
    20  H    2.070952   4.840691   2.543198   3.608005   2.559770
    21  Cl   3.247808   1.770809   3.293769   3.193160   2.970340
    22  Cl   4.647528   1.775412   4.367764   3.498156   4.553914
                   16         17         18         19         20
    16  H    0.000000
    17  C    2.565061   0.000000
    18  H    3.631460   1.090809   0.000000
    19  H    2.580213   1.100843   1.784467   0.000000
    20  H    2.619369   1.091733   1.763248   1.773965   0.000000
    21  Cl   4.383714   4.348591   4.570402   5.297529   4.414213
    22  Cl   5.256522   6.082884   6.478546   6.692139   6.462150
                   21         22
    21  Cl   0.000000
    22  Cl   2.995644   0.000000
 Symmetry turned off by external request.
 Stoichiometry    C8H10BCl2N
 Framework group  C1[X(C8H10BCl2N)]
 Deg. of freedom    60
 Full point group                 C1      NOp   1
 Rotational constants (GHZ):           0.8744889           0.6195781           0.4164199
 General basis read from cards:  (5D, 7F)
 ======================================================================================================
                                       Pseudopotential Parameters
 ======================================================================================================
  Center     Atomic      Valence      Angular      Power
  Number     Number     Electrons     Momentum     of R      Exponent        Coefficient   SO-Coeffient
 ======================================================================================================
    1          6
                                   No pseudopotential on this center.
    2          6
                                   No pseudopotential on this center.
    3          6
                                   No pseudopotential on this center.
    4          6
                                   No pseudopotential on this center.
    5          6
                                   No pseudopotential on this center.
    6          6
                                   No pseudopotential on this center.
    7          1
                                   No pseudopotential on this center.
    8          1
                                   No pseudopotential on this center.
    9          1
                                   No pseudopotential on this center.
   10          1
                                   No pseudopotential on this center.
   11          7
                                   No pseudopotential on this center.
   12          5
                                   No pseudopotential on this center.
   13          6
                                   No pseudopotential on this center.
   14          1
                                   No pseudopotential on this center.
   15          1
                                   No pseudopotential on this center.
   16          1
                                   No pseudopotential on this center.
   17          6
                                   No pseudopotential on this center.
   18          1
                                   No pseudopotential on this center.
   19          1
                                   No pseudopotential on this center.
   20          1
                                   No pseudopotential on this center.
   21         17
                                   No pseudopotential on this center.
   22         17
                                   No pseudopotential on this center.
 ======================================================================================================
   350 basis functions,   556 primitive gaussians,   362 cartesian basis functions
    52 alpha electrons       52 beta electrons
       nuclear repulsion energy       855.1250618155 Hartrees.
 NAtoms=   22 NActive=   22 NUniq=   22 SFac= 1.00D+00 NAtFMM=   60 NAOKFM=F Big=F
 Integral buffers will be    131072 words long.
 Raffenetti 2 integral format.
 Two-electron integral symmetry is turned off.
 Nuclear repulsion after empirical dispersion term =      855.1095732138 Hartrees.
 ------------------------------------------------------------------------------
 Polarizable Continuum Model (PCM)
 =================================
 Model                : PCM.
 Atomic radii         : UFF (Universal Force Field).
 Polarization charges : Total charges.
 Charge compensation  : None.
 Solution method      : On-the-fly selection.
 Cavity type          : Scaled VdW (van der Waals Surface) (Alpha=1.100).
 Cavity algorithm     : GePol (No added spheres)
                        Default sphere list used, NSphG=   22.
                        Lebedev-Laikov grids with approx.  5.0 points / Ang**2.
                        Smoothing algorithm: York/Karplus (Gamma=1.0000).
                        Polarization charges: spherical gaussians, with
                                              point-specific exponents (IZeta= 3).
                        Self-potential: point-specific (ISelfS= 7).
                        Self-field    : sphere-specific E.n sum rule (ISelfD= 2).
 Solvent              : Toluene, Eps=   2.374100 Eps(inf)=   2.238315
 ------------------------------------------------------------------------------
 One-electron integrals computed using PRISM.
   1 Symmetry operations used in ECPInt.
 ECPInt:  NShTT=    9316 NPrTT=   31643 LenC2=    8857 LenP2D=   21990.
 LDataN:  DoStor=T MaxTD1= 4 Len=   56
 Number of processors reduced to 122 by ecpmxn.
 NBasis=   350 RedAO= T EigKep=  1.58D-06  NBF=   350
 NBsUse=   349 1.00D-06 EigRej=  5.41D-07 NBFU=   349
 ExpMin= 3.15D-02 ExpMax= 1.06D+05 ExpMxC= 3.62D+03 IAcc=3 IRadAn=         5 AccDes= 0.00D+00
 Harris functional with IExCor= 4639 and IRadAn=       5 diagonalized for initial guess.
 HarFok:  IExCor= 4639 AccDes= 0.00D+00 IRadAn=         5 IDoV= 1 UseB2=F ITyADJ=14
 ICtDFT=  3500011 ScaDFX=  1.000000  1.000000  1.000000  1.000000
 FoFCou: FMM=F IPFlag=           0 FMFlag=      100000 FMFlg1=           0
         NFxFlg=           0 DoJE=T BraDBF=F KetDBF=T FulRan=T
         wScrn=  0.000000 ICntrl=       500 IOpCl=  0 I1Cent=   200000004 NGrid=           0
         NMat0=    1 NMatS0=      1 NMatT0=    0 NMatD0=    1 NMtDS0=    0 NMtDT0=    0
 Symmetry not used in FoFCou.
 Requested convergence on RMS density matrix=1.00D-08 within 300 cycles.
 Requested convergence on MAX density matrix=1.00D-06.
 Requested convergence on             energy=1.00D-06.
 No special actions if energy rises.
 Inv3:  Mode=1 IEnd=     9590832.
 Iteration    1 A*A^-1 deviation from unit magnitude is 2.89D-15 for   1774.
 Iteration    1 A*A^-1 deviation from orthogonality  is 2.13D-15 for   1749   1365.
 Iteration    1 A^-1*A deviation from unit magnitude is 3.11D-15 for   1774.
 Iteration    1 A^-1*A deviation from orthogonality  is 1.94D-15 for   1123    490.
 Error on total polarization charges =  0.01101
 SCF Done:  E(RwB97XD) =  -1310.94590924     A.U. after   17 cycles
            NFock= 17  Conv=0.28D-08     -V/T= 2.0028

 **********************************************************************

            Population analysis using the SCF Density.

 **********************************************************************

 Alpha  occ. eigenvalues -- -101.72103-101.71937 -14.45745 -10.34560 -10.31622
 Alpha  occ. eigenvalues --  -10.31467 -10.30192 -10.30104 -10.28997 -10.28652
 Alpha  occ. eigenvalues --  -10.28550  -9.59152  -9.58996  -7.33805  -7.33656
 Alpha  occ. eigenvalues --   -7.33286  -7.33125  -7.33111  -7.32947  -6.95195
 Alpha  occ. eigenvalues --   -1.06313  -0.96626  -0.95458  -0.92206  -0.86046
 Alpha  occ. eigenvalues --   -0.85883  -0.82361  -0.76632  -0.71143  -0.68275
 Alpha  occ. eigenvalues --   -0.63524  -0.59387  -0.57924  -0.56625  -0.56618
 Alpha  occ. eigenvalues --   -0.53799  -0.52605  -0.51158  -0.50175  -0.49265
 Alpha  occ. eigenvalues --   -0.48868  -0.47635  -0.46359  -0.45424  -0.44588
 Alpha  occ. eigenvalues --   -0.43647  -0.40939  -0.40427  -0.39406  -0.37277
 Alpha  occ. eigenvalues --   -0.34165  -0.28176
 Alpha virt. eigenvalues --   -0.00220   0.03785   0.04924   0.05229   0.05451
 Alpha virt. eigenvalues --    0.06148   0.06858   0.06924   0.07493   0.08135
 Alpha virt. eigenvalues --    0.08441   0.09201   0.09453   0.09839   0.11224
 Alpha virt. eigenvalues --    0.12097   0.12145   0.13204   0.13531   0.13800
 Alpha virt. eigenvalues --    0.14794   0.14973   0.15727   0.16503   0.16580
 Alpha virt. eigenvalues --    0.17274   0.17784   0.18049   0.18063   0.18135
 Alpha virt. eigenvalues --    0.18709   0.19123   0.19349   0.19598   0.19973
 Alpha virt. eigenvalues --    0.20065   0.20550   0.21085   0.21281   0.21551
 Alpha virt. eigenvalues --    0.21841   0.22558   0.22794   0.23370   0.23430
 Alpha virt. eigenvalues --    0.24013   0.24440   0.25237   0.25382   0.25631
 Alpha virt. eigenvalues --    0.26359   0.27069   0.27274   0.28000   0.28557
 Alpha virt. eigenvalues --    0.29168   0.29413   0.30151   0.30631   0.31111
 Alpha virt. eigenvalues --    0.31854   0.32431   0.33048   0.34371   0.34929
 Alpha virt. eigenvalues --    0.35354   0.35722   0.36268   0.36573   0.37455
 Alpha virt. eigenvalues --    0.37752   0.38232   0.38716   0.39625   0.40386
 Alpha virt. eigenvalues --    0.40928   0.41700   0.43801   0.44725   0.46857
 Alpha virt. eigenvalues --    0.48024   0.50066   0.51672   0.52944   0.54454
 Alpha virt. eigenvalues --    0.55201   0.56530   0.56858   0.58259   0.59276
 Alpha virt. eigenvalues --    0.59579   0.60291   0.61874   0.62353   0.63452
 Alpha virt. eigenvalues --    0.63630   0.63969   0.65353   0.66213   0.66719
 Alpha virt. eigenvalues --    0.68152   0.68191   0.69047   0.69838   0.71108
 Alpha virt. eigenvalues --    0.71533   0.72637   0.73770   0.74611   0.74864
 Alpha virt. eigenvalues --    0.75954   0.76412   0.78101   0.79210   0.79993
 Alpha virt. eigenvalues --    0.82506   0.83176   0.83530   0.84710   0.84939
 Alpha virt. eigenvalues --    0.86293   0.87733   0.90856   0.91295   0.92660
 Alpha virt. eigenvalues --    0.93345   0.94353   0.95920   0.96395   0.97375
 Alpha virt. eigenvalues --    0.97859   0.98466   0.98818   0.99846   1.00462
 Alpha virt. eigenvalues --    1.00862   1.02416   1.02604   1.03922   1.05420
 Alpha virt. eigenvalues --    1.06720   1.07327   1.08455   1.10871   1.11843
 Alpha virt. eigenvalues --    1.12627   1.14367   1.16917   1.18408   1.19058
 Alpha virt. eigenvalues --    1.21577   1.23140   1.24896   1.27218   1.33532
 Alpha virt. eigenvalues --    1.35029   1.37512   1.40299   1.41360   1.45853
 Alpha virt. eigenvalues --    1.48683   1.50267   1.50577   1.52999   1.56129
 Alpha virt. eigenvalues --    1.57981   1.58875   1.60882   1.61968   1.62391
 Alpha virt. eigenvalues --    1.62930   1.63618   1.65796   1.66235   1.67544
 Alpha virt. eigenvalues --    1.68250   1.69944   1.73505   1.74091   1.75934
 Alpha virt. eigenvalues --    1.77130   1.79923   1.80242   1.81588   1.83287
 Alpha virt. eigenvalues --    1.83913   1.84904   1.88301   1.91139   1.93026
 Alpha virt. eigenvalues --    1.94273   1.97697   1.99497   2.01310   2.02632
 Alpha virt. eigenvalues --    2.03613   2.05465   2.06826   2.08483   2.11719
 Alpha virt. eigenvalues --    2.13747   2.13902   2.15146   2.16486   2.20555
 Alpha virt. eigenvalues --    2.21215   2.25456   2.29145   2.29572   2.35392
 Alpha virt. eigenvalues --    2.36249   2.38520   2.41298   2.43192   2.43519
 Alpha virt. eigenvalues --    2.44359   2.49473   2.50173   2.51989   2.53045
 Alpha virt. eigenvalues --    2.54912   2.55121   2.56217   2.58412   2.61682
 Alpha virt. eigenvalues --    2.63993   2.65360   2.66979   2.68503   2.69898
 Alpha virt. eigenvalues --    2.71430   2.71826   2.74796   2.76473   2.77421
 Alpha virt. eigenvalues --    2.79258   2.80807   2.81419   2.82102   2.83540
 Alpha virt. eigenvalues --    2.86213   2.86790   2.89283   2.89744   2.92916
 Alpha virt. eigenvalues --    2.95323   2.97101   2.98995   3.04162   3.06454
 Alpha virt. eigenvalues --    3.08896   3.09649   3.14056   3.21337   3.26223
 Alpha virt. eigenvalues --    3.32841   3.44724   3.46610   3.51534   3.57942
 Alpha virt. eigenvalues --    3.63760   3.66704   3.66988   3.79947   3.86427
 Alpha virt. eigenvalues --    3.89328   3.90261   3.93301   4.02263   4.05140
 Alpha virt. eigenvalues --    4.14988   4.20675   4.23807   4.29640   4.93363
 Alpha virt. eigenvalues --    4.98197   5.16163   9.89162  10.01362  14.55835
 Alpha virt. eigenvalues --   23.74891  24.06966  24.07835  24.08619  24.09839
 Alpha virt. eigenvalues --   24.16712  24.23310  24.32344  26.09951  26.12998
 Alpha virt. eigenvalues --   26.16346  26.32113  26.54373  26.66699  35.73197
 Alpha virt. eigenvalues --  215.97731 216.11254
          Condensed to atoms (all electrons):
               1          2          3          4          5          6
     1  C    7.242552   0.025973  -2.057236   0.912179  -0.062779   0.146347
     2  C    0.025973  15.495520   0.545641  -9.172699  -0.957986  -0.128819
     3  C   -2.057236   0.545641  21.412614  -7.184594  -7.323925   1.073461
     4  C    0.912179  -9.172699  -7.184594  21.310346   2.631867  -2.230017
     5  C   -0.062779  -0.957986  -7.323925   2.631867  12.462371  -0.380830
     6  C    0.146347  -0.128819   1.073461  -2.230017  -0.380830   8.217727
     7  H    0.441752  -0.127866   0.038113   0.076644  -0.033124  -0.055124
     8  H    0.012602   0.672144  -0.376495  -0.084721   0.118192  -0.038579
     9  H   -0.001096   0.073464  -0.031196   0.001722   0.476070  -0.160851
    10  H   -0.069635  -0.006678   0.042475   0.011574  -0.050624   0.413999
    11  N    0.045698   0.026107   0.168731  -0.060929  -0.639518  -0.034609
    12  B   -0.050741  -0.703961  -0.611773   0.920329   0.034652   0.005807
    13  C    0.016373  -0.039754  -0.165037   0.027442  -0.028978  -0.024093
    14  H   -0.023305   0.067988   0.349454  -0.157927  -0.127617   0.000992
    15  H    0.013097   0.063152  -0.014209  -0.058583   0.003514  -0.015946
    16  H   -0.003443  -0.025411  -0.068397   0.030257   0.038901   0.009619
    17  C    0.052530  -0.005650  -0.320635   0.217204  -0.109777  -0.388048
    18  H    0.004125  -0.003420  -0.049165  -0.044707   0.094573  -0.003901
    19  H   -0.000965  -0.010301  -0.032571  -0.002648   0.014636   0.020104
    20  H   -0.000518   0.001131   0.020012   0.020165  -0.010601  -0.012696
    21  Cl  -0.030257  -0.168220  -0.364646   0.175919  -0.030699  -0.044575
    22  Cl  -0.075439   0.299627  -0.186931  -0.276795  -0.046087  -0.020710
               7          8          9         10         11         12
     1  C    0.441752   0.012602  -0.001096  -0.069635   0.045698  -0.050741
     2  C   -0.127866   0.672144   0.073464  -0.006678   0.026107  -0.703961
     3  C    0.038113  -0.376495  -0.031196   0.042475   0.168731  -0.611773
     4  C    0.076644  -0.084721   0.001722   0.011574  -0.060929   0.920329
     5  C   -0.033124   0.118192   0.476070  -0.050624  -0.639518   0.034652
     6  C   -0.055124  -0.038579  -0.160851   0.413999  -0.034609   0.005807
     7  H    0.466508  -0.017275   0.000050  -0.007137   0.001478  -0.001578
     8  H   -0.017275   0.554435   0.004002  -0.000320  -0.005549  -0.109150
     9  H    0.000050   0.004002   0.502273  -0.009311  -0.038283  -0.016421
    10  H   -0.007137  -0.000320  -0.009311   0.466836  -0.006148  -0.009064
    11  N    0.001478  -0.005549  -0.038283  -0.006148   7.098524   0.041949
    12  B   -0.001578  -0.109150  -0.016421  -0.009064   0.041949   5.246111
    13  C   -0.000023   0.001915  -0.001782  -0.001479   0.176664   0.063124
    14  H    0.000321  -0.002123   0.002128   0.000544  -0.061619  -0.135938
    15  H   -0.000067   0.003316   0.000337  -0.000363  -0.052514  -0.026744
    16  H   -0.000132   0.000189   0.001812  -0.000045  -0.074448   0.012108
    17  C    0.000248   0.002346   0.021629  -0.005010   0.281008   0.040467
    18  H   -0.000065   0.000117  -0.012073   0.000311  -0.039620  -0.008121
    19  H   -0.000044   0.000041  -0.005468   0.000277  -0.068142   0.007407
    20  H    0.000039  -0.000360   0.004961   0.000050  -0.049599  -0.001937
    21  Cl  -0.000599   0.005031   0.000597  -0.001447   0.009255   0.447439
    22  Cl  -0.003033   0.047914   0.001055  -0.000730   0.014482   0.402127
              13         14         15         16         17         18
     1  C    0.016373  -0.023305   0.013097  -0.003443   0.052530   0.004125
     2  C   -0.039754   0.067988   0.063152  -0.025411  -0.005650  -0.003420
     3  C   -0.165037   0.349454  -0.014209  -0.068397  -0.320635  -0.049165
     4  C    0.027442  -0.157927  -0.058583   0.030257   0.217204  -0.044707
     5  C   -0.028978  -0.127617   0.003514   0.038901  -0.109777   0.094573
     6  C   -0.024093   0.000992  -0.015946   0.009619  -0.388048  -0.003901
     7  H   -0.000023   0.000321  -0.000067  -0.000132   0.000248  -0.000065
     8  H    0.001915  -0.002123   0.003316   0.000189   0.002346   0.000117
     9  H   -0.001782   0.002128   0.000337   0.001812   0.021629  -0.012073
    10  H   -0.001479   0.000544  -0.000363  -0.000045  -0.005010   0.000311
    11  N    0.176664  -0.061619  -0.052514  -0.074448   0.281008  -0.039620
    12  B    0.063124  -0.135938  -0.026744   0.012108   0.040467  -0.008121
    13  C    5.349546   0.383400   0.395845   0.446062  -0.084188  -0.001055
    14  H    0.383400   0.621167  -0.055416  -0.043356  -0.017467  -0.003426
    15  H    0.395845  -0.055416   0.542003  -0.037893   0.010330   0.001214
    16  H    0.446062  -0.043356  -0.037893   0.540191   0.009691   0.000885
    17  C   -0.084188  -0.017467   0.010330   0.009691   5.461024   0.426399
    18  H   -0.001055  -0.003426   0.001214   0.000885   0.426399   0.535974
    19  H   -0.004873  -0.005733   0.001496   0.005461   0.418046  -0.043147
    20  H    0.003553   0.010307  -0.002788  -0.008488   0.399156  -0.021300
    21  Cl   0.024037  -0.045532   0.034609   0.001701   0.064906  -0.000588
    22  Cl   0.010087   0.002311  -0.005895   0.000973   0.005749  -0.000546
              19         20         21         22
     1  C   -0.000965  -0.000518  -0.030257  -0.075439
     2  C   -0.010301   0.001131  -0.168220   0.299627
     3  C   -0.032571   0.020012  -0.364646  -0.186931
     4  C   -0.002648   0.020165   0.175919  -0.276795
     5  C    0.014636  -0.010601  -0.030699  -0.046087
     6  C    0.020104  -0.012696  -0.044575  -0.020710
     7  H   -0.000044   0.000039  -0.000599  -0.003033
     8  H    0.000041  -0.000360   0.005031   0.047914
     9  H   -0.005468   0.004961   0.000597   0.001055
    10  H    0.000277   0.000050  -0.001447  -0.000730
    11  N   -0.068142  -0.049599   0.009255   0.014482
    12  B    0.007407  -0.001937   0.447439   0.402127
    13  C   -0.004873   0.003553   0.024037   0.010087
    14  H   -0.005733   0.010307  -0.045532   0.002311
    15  H    0.001496  -0.002788   0.034609  -0.005895
    16  H    0.005461  -0.008488   0.001701   0.000973
    17  C    0.418046   0.399156   0.064906   0.005749
    18  H   -0.043147  -0.021300  -0.000588  -0.000546
    19  H    0.555058  -0.036264   0.000057  -0.000070
    20  H   -0.036264   0.496835   0.002697   0.000570
    21  Cl   0.000057   0.002697  16.981777  -0.103667
    22  Cl  -0.000070   0.000570  -0.103667  16.864384
 Mulliken charges:
               1
     1  C   -0.537812
     2  C    0.080018
     3  C    1.136310
     4  C   -1.062028
     5  C   -0.072231
     6  C   -0.349258
     7  H    0.220913
     8  H    0.212327
     9  H    0.186382
    10  H    0.231926
    11  N    0.267082
    12  B   -0.546093
    13  C   -0.546786
    14  H    0.240848
    15  H    0.201505
    16  H    0.163765
    17  C   -0.479958
    18  H    0.167539
    19  H    0.187644
    20  H    0.185075
    21  Cl   0.042205
    22  Cl   0.070626
 Sum of Mulliken charges =  -0.00000
 Mulliken charges with hydrogens summed into heavy atoms:
               1
     1  C   -0.316899
     2  C    0.292346
     3  C    1.136310
     4  C   -1.062028
     5  C    0.114152
     6  C   -0.117332
    11  N    0.267082
    12  B   -0.546093
    13  C    0.059332
    17  C    0.060300
    21  Cl   0.042205
    22  Cl   0.070626
 Electronic spatial extent (au):  <R**2>=           6527.7088
 Charge=              0.0000 electrons
 Dipole moment (field-independent basis, Debye):
    X=             -2.6824    Y=              2.4658    Z=             -0.2615  Tot=              3.6529
 Quadrupole moment (field-independent basis, Debye-Ang):
   XX=            -93.3348   YY=            -62.8572   ZZ=            -87.9457
   XY=             -1.6168   XZ=              1.2354   YZ=             -3.3230
 Traceless Quadrupole moment (field-independent basis, Debye-Ang):
   XX=            -11.9556   YY=             18.5221   ZZ=             -6.5664
   XY=             -1.6168   XZ=              1.2354   YZ=             -3.3230
 Octapole moment (field-independent basis, Debye-Ang**2):
  XXX=           -465.6370  YYY=           -558.2514  ZZZ=            -30.1060  XYY=           -118.9138
  XXY=           -239.9877  XXZ=             -8.1599  XZZ=           -138.8984  YZZ=           -235.2674
  YYZ=            -23.6581  XYZ=              7.5406
 Hexadecapole moment (field-independent basis, Debye-Ang**3):
 XXXX=          -3356.2306 YYYY=          -4294.2973 ZZZZ=           -538.8362 XXXY=          -1127.6797
 XXXZ=            -85.2024 YYYX=           -890.7065 YYYZ=             63.0834 ZZZX=            -84.1926
 ZZZY=            134.9629 XXYY=          -1334.0420 XXZZ=           -623.5587 YYZZ=           -917.9066
 XXYZ=             55.4421 YYXZ=             -0.3484 ZZXY=           -350.1660
 N-N= 8.551095732138D+02 E-N=-4.804868788366D+03  KE= 1.307248365416D+03
 Breneman (CHELPG) radii used.
 Generate Potential Derived Charges using the Breneman model, NDens= 1.
 Grid spacing= 0.300 Box extension= 2.800
 NStep X,Y,Z=   41     41     31   Total possible points=       52111
 Number of Points to Fit=   13674

 **********************************************************************

            Electrostatic Properties Using The SCF Density.

 **********************************************************************

       Atomic Center    1 is at  -0.651803  0.902026  0.757942
       Atomic Center    2 is at   0.717753  1.063266  0.871673
       Atomic Center    3 is at   1.379717  2.210832  0.397937
       Atomic Center    4 is at   0.595903  3.279395 -0.118843
       Atomic Center    5 is at  -0.790605  3.090420 -0.255385
       Atomic Center    6 is at  -1.395772  1.919045  0.167513
       Atomic Center    7 is at  -1.130477 -0.003548  1.109827
       Atomic Center    8 is at   1.307045  0.259180  1.298620
       Atomic Center    9 is at  -1.408526  3.881663 -0.658426
       Atomic Center   10 is at  -2.470063  1.813124  0.059806
       Atomic Center   11 is at   1.180909  4.482291 -0.473969
       Atomic Center   12 is at   2.910513  2.105572  0.270658
       Atomic Center   13 is at   2.170471  5.110979  0.386072
       Atomic Center   14 is at   2.476173  4.434535  1.184315
       Atomic Center   15 is at   3.060025  5.403738 -0.179074
       Atomic Center   16 is at   1.744412  6.006594  0.857441
       Atomic Center   17 is at   0.434330  5.432342 -1.271751
       Atomic Center   18 is at  -0.056107  4.930694 -2.107027
       Atomic Center   19 is at  -0.321816  5.979130 -0.687695
       Atomic Center   20 is at   1.133845  6.161546 -1.685056
       Atomic Center   21 is at   3.809636  2.693843 -1.136921
       Atomic Center   22 is at   3.879369  1.244154  1.483656
   13674 points will be used for fitting atomic charges
 Fitting point charges to electrostatic potential
 Charges from ESP fit, RMS=   0.00437 RRMS=   0.34742:
 ESP charges:
               1
     1  C   -0.189205
     2  C   -0.043904
     3  C   -0.224214
     4  C    0.331187
     5  C   -0.246052
     6  C   -0.036591
     7  H    0.115082
     8  H    0.095520
     9  H    0.129008
    10  H    0.103188
    11  N   -0.286415
    12  B    0.393728
    13  C    0.035459
    14  H    0.014953
    15  H    0.062096
    16  H    0.038773
    17  C   -0.130014
    18  H    0.069885
    19  H    0.076633
    20  H    0.099988
    21  Cl  -0.210142
    22  Cl  -0.198961
 Sum of ESP charges =  -0.00000
 ESP charges with hydrogens summed into heavy atoms:
               1
     1  C   -0.074124
     2  C    0.051616
     3  C   -0.224214
     4  C    0.331187
     5  C   -0.117045
     6  C    0.066597
    11  N   -0.286415
    12  B    0.393728
    13  C    0.151281
    17  C    0.116491
    21  Cl  -0.210142
    22  Cl  -0.198961
 Charge=  -0.00000 Dipole=    -2.7914     2.4726    -0.2117 Tot=     3.7350
 -----------------------------------------------------------------

              Electrostatic Properties (Atomic Units)

 -----------------------------------------------------------------
    Center     Electric         -------- Electric Field --------
               Potential          X             Y             Z
 -----------------------------------------------------------------
    1 Atom    -14.777620
    2 Atom    -14.764223
    3 Atom    -14.777268
    4 Atom    -14.715728
    5 Atom    -14.770708
    6 Atom    -14.761964
    7 Atom     -1.103721
    8 Atom     -1.103647
    9 Atom     -1.093208
   10 Atom     -1.095713
   11 Atom    -18.361522
   12 Atom    -11.360432
   13 Atom    -14.735418
   14 Atom     -1.095388
   15 Atom     -1.107958
   16 Atom     -1.101717
   17 Atom    -14.734446
   18 Atom     -1.097827
   19 Atom     -1.101056
   20 Atom     -1.096921
   21 Atom    -64.414391
   22 Atom    -64.412929
 -----------------------------------------------------------------
 Unable to Open any file for archive entry.
 1\1\GINC-IRENE5203\SP\RwB97XD\GenECP\C8H10B1Cl2N1\PENASFRA\10-Apr-2024
 \0\\# wb97xd/genecp scrf=(solvent=toluene,pcm) nosymm pop=(chelpg) scf
 cyc=300\\cl_dimethylaniline_chelpg\\0,1\C,0,-0.651803,0.902026,0.75794
 2\C,0,0.717753,1.063266,0.871673\C,0,1.379717,2.210832,0.397937\C,0,0.
 595903,3.279395,-0.118843\C,0,-0.790605,3.09042,-0.255385\C,0,-1.39577
 2,1.919045,0.167513\H,0,-1.130477,-0.003548,1.109827\H,0,1.307045,0.25
 918,1.29862\H,0,-1.408526,3.881663,-0.658426\H,0,-2.470063,1.813124,0.
 059806\N,0,1.180909,4.482291,-0.473969\B,0,2.910513,2.105572,0.270658\
 C,0,2.170471,5.110979,0.386072\H,0,2.476173,4.434535,1.184315\H,0,3.06
 0025,5.403738,-0.179074\H,0,1.744412,6.006594,0.857441\C,0,0.43433,5.4
 32342,-1.271751\H,0,-0.056107,4.930694,-2.107027\H,0,-0.321816,5.97913
 ,-0.687695\H,0,1.133845,6.161546,-1.685056\Cl,0,3.809636,2.693843,-1.1
 36921\Cl,0,3.879369,1.244154,1.483656\\Version=AS64L-G16RevC.02\HF=-13
 10.9459092\RMSD=2.787e-09\Dipole=-1.0553512,0.9701095,-0.1028834\Quadr
 upole=-8.888702,13.770694,-4.8819921,-1.2020522,0.91851,-2.4705676\PG=
 C01 [X(C8H10B1Cl2N1)]\\@
 The archive entry for this job was punched.


 THEORY:  SUPPOSITION WHICH HAS SCIENTIFIC BASIS,
          BUT NOT EXPERIMENTALLY PROVEN.
 FACT:    A THEORY WHICH HAS BEEN PROVEN BY ENOUGH 
          MONEY TO PAY FOR THE EXPERIMENTS.

                          --  THE WIZARD OF ID
 Job cpu time:       0 days  0 hours 42 minutes 56.9 seconds.
 Elapsed time:       0 days  0 hours  0 minutes 26.4 seconds.
 File lengths (MBytes):  RWF=    122 Int=      0 D2E=      0 Chk=      9 Scr=      1
 Normal termination of Gaussian 16 at Wed Apr 10 15:36:18 2024.
