 Entering Gaussian System, Link 0=/ccc/products/gaussian-16-C.02/system/default/g16/g16
 Input=cl_indole_chelpg.gjf
 Output=cl_indole_chelpg.log
 Initial command:
 /ccc/products/gaussian-16-C.02/system/default/g16/l1.exe "/ccc/scratch/cont003/gen7343/penasfra/flp/b-n_flp/cl_indole/reac/Gau-773841.inp" -scrdir="/ccc/scratch/cont003/gen7343/penasfra/flp/b-n_flp/cl_indole/reac/"
 Entering Link 1 = /ccc/products/gaussian-16-C.02/system/default/g16/l1.exe PID=    773890.
  
 Copyright (c) 1988-2021, Gaussian, Inc.  All Rights Reserved.
  
 This is part of the Gaussian(R) 16 program.  It is based on
 the Gaussian(R) 09 system (copyright 2009, Gaussian, Inc.),
 the Gaussian(R) 03 system (copyright 2003, Gaussian, Inc.),
 the Gaussian(R) 98 system (copyright 1998, Gaussian, Inc.),
 the Gaussian(R) 94 system (copyright 1995, Gaussian, Inc.),
 the Gaussian 92(TM) system (copyright 1992, Gaussian, Inc.),
 the Gaussian 90(TM) system (copyright 1990, Gaussian, Inc.),
 the Gaussian 88(TM) system (copyright 1988, Gaussian, Inc.),
 the Gaussian 86(TM) system (copyright 1986, Carnegie Mellon
 University), and the Gaussian 82(TM) system (copyright 1983,
 Carnegie Mellon University). Gaussian is a federally registered
 trademark of Gaussian, Inc.
  
 This software contains proprietary and confidential information,
 including trade secrets, belonging to Gaussian, Inc.
  
 This software is provided under written license and may be
 used, copied, transmitted, or stored only in accord with that
 written license.
  
 The following legend is applicable only to US Government
 contracts under FAR:
  
                    RESTRICTED RIGHTS LEGEND
  
 Use, reproduction and disclosure by the US Government is
 subject to restrictions as set forth in subparagraphs (a)
 and (c) of the Commercial Computer Software - Restricted
 Rights clause in FAR 52.227-19.
  
 Gaussian, Inc.
 340 Quinnipiac St., Bldg. 40, Wallingford CT 06492
  
  
 ---------------------------------------------------------------
 Warning -- This program may not be used in any manner that
 competes with the business of Gaussian, Inc. or will provide
 assistance to any competitor of Gaussian, Inc.  The licensee
 of this program is prohibited from giving any competitor of
 Gaussian, Inc. access to this program.  By using this program,
 the user acknowledges that Gaussian, Inc. is engaged in the
 business of creating and licensing software in the field of
 computational chemistry and represents and warrants to the
 licensee that it is not a competitor of Gaussian, Inc. and that
 it will not use this program in any manner prohibited above.
 ---------------------------------------------------------------
  

 Cite this work as:
 Gaussian 16, Revision C.02,
 M. J. Frisch, G. W. Trucks, H. B. Schlegel, G. E. Scuseria, 
 M. A. Robb, J. R. Cheeseman, G. Scalmani, V. Barone, 
 G. A. Petersson, H. Nakatsuji, X. Li, M. Caricato, A. V. Marenich, 
 J. Bloino, B. G. Janesko, R. Gomperts, B. Mennucci, H. P. Hratchian, 
 J. V. Ortiz, A. F. Izmaylov, J. L. Sonnenberg, D. Williams-Young, 
 F. Ding, F. Lipparini, F. Egidi, J. Goings, B. Peng, A. Petrone, 
 T. Henderson, D. Ranasinghe, V. G. Zakrzewski, J. Gao, N. Rega, 
 G. Zheng, W. Liang, M. Hada, M. Ehara, K. Toyota, R. Fukuda, 
 J. Hasegawa, M. Ishida, T. Nakajima, Y. Honda, O. Kitao, H. Nakai, 
 T. Vreven, K. Throssell, J. A. Montgomery, Jr., J. E. Peralta, 
 F. Ogliaro, M. J. Bearpark, J. J. Heyd, E. N. Brothers, K. N. Kudin, 
 V. N. Staroverov, T. A. Keith, R. Kobayashi, J. Normand, 
 K. Raghavachari, A. P. Rendell, J. C. Burant, S. S. Iyengar, 
 J. Tomasi, M. Cossi, J. M. Millam, M. Klene, C. Adamo, R. Cammi, 
 J. W. Ochterski, R. L. Martin, K. Morokuma, O. Farkas, 
 J. B. Foresman, and D. J. Fox, Gaussian, Inc., Wallingford CT, 2019.
 
 ******************************************
 Gaussian 16:  AS64L-G16RevC.02  7-Dec-2021
                11-Apr-2024 
 ******************************************
 %nprocshared=128
 Will use up to  128 processors via shared memory.
 %mem=30GB
 %chk=cl_indole_chelpg.chk
 ----------------------------------------------------------------------
 # wb97xd/genecp scrf=(solvent=toluene,pcm) nosymm pop=(chelpg) scfcyc=
 300
 ----------------------------------------------------------------------
 1/38=1,172=1/1;
 2/12=2,15=1,17=6,18=5,40=1/2;
 3/5=7,11=2,16=1,17=8,25=1,30=1,70=2201,72=13,74=-58/1,2,3;
 4//1;
 5/5=2,7=300,38=5,53=13/2;
 6/7=2,8=2,9=2,10=2,15=8,20=3,28=1/1,2;
 99/5=1,9=1/99;
 ----------------
 cl_indole_chelpg
 ----------------
 Symbolic Z-matrix:
 Charge =  0 Multiplicity = 1
 C                    -1.09861  -1.23307  -0.14779 
 C                    -2.4821   -1.26632  -0.05439 
 C                    -1.81872   0.89738  -0.14501 
 C                    -1.94121   2.29877  -0.16567 
 C                    -3.2023    2.8516   -0.0925 
 C                    -4.34587   2.01305   0.00188 
 C                    -4.2371    0.64591   0.02368 
 C                    -2.95625   0.06429  -0.05046 
 H                    -1.07337   2.94422  -0.23534 
 H                    -5.32523   2.47714   0.05808 
 H                    -5.11889   0.01895   0.0964 
 N                    -0.7054    0.10818  -0.20403 
 H                    -3.07688  -2.16473   0.00579 
 B                    -0.22039  -2.47741  -0.16805 
 C                     0.65042   0.6134   -0.31308 
 H                     1.24343   0.33175   0.5579 
 H                     1.1343    0.23449  -1.21362 
 H                     0.61797   1.69899  -0.37248 
 C                    -3.3934    4.34507  -0.11049 
 H                    -3.89929   4.68271   0.79866 
 H                    -2.43979   4.87088  -0.18374 
 H                    -4.01425   4.64656  -0.95913 
 Cl                    1.5484   -2.47613  -0.24964 
 Cl                   -0.97594  -4.08072  -0.10188 
 
                          Input orientation:                          
 ---------------------------------------------------------------------
 Center     Atomic      Atomic             Coordinates (Angstroms)
 Number     Number       Type             X           Y           Z
 ---------------------------------------------------------------------
      1          6           0       -1.098610   -1.233073   -0.147789
      2          6           0       -2.482100   -1.266316   -0.054394
      3          6           0       -1.818723    0.897376   -0.145005
      4          6           0       -1.941214    2.298774   -0.165665
      5          6           0       -3.202295    2.851602   -0.092500
      6          6           0       -4.345866    2.013051    0.001878
      7          6           0       -4.237103    0.645911    0.023675
      8          6           0       -2.956248    0.064291   -0.050462
      9          1           0       -1.073375    2.944218   -0.235343
     10          1           0       -5.325228    2.477138    0.058080
     11          1           0       -5.118894    0.018948    0.096398
     12          7           0       -0.705404    0.108177   -0.204028
     13          1           0       -3.076879   -2.164725    0.005794
     14          5           0       -0.220392   -2.477414   -0.168052
     15          6           0        0.650415    0.613396   -0.313081
     16          1           0        1.243427    0.331754    0.557904
     17          1           0        1.134295    0.234494   -1.213622
     18          1           0        0.617971    1.698991   -0.372478
     19          6           0       -3.393397    4.345071   -0.110494
     20          1           0       -3.899287    4.682712    0.798663
     21          1           0       -2.439792    4.870884   -0.183735
     22          1           0       -4.014252    4.646557   -0.959133
     23         17           0        1.548395   -2.476127   -0.249644
     24         17           0       -0.975940   -4.080716   -0.101883
 ---------------------------------------------------------------------
                    Distance matrix (angstroms):
                    1          2          3          4          5
     1  C    0.000000
     2  C    1.387037   0.000000
     3  C    2.248863   2.264916   0.000000
     4  C    3.631011   3.607604   1.406893   0.000000
     5  C    4.594901   4.180596   2.395001   1.378875   0.000000
     6  C    4.593952   3.772405   2.766362   2.427356   1.421207
     7  C    3.661983   2.596679   2.437263   2.835298   2.439139
     8  C    2.267916   1.412567   1.413128   2.456925   2.798465
     9  H    4.178285   4.443630   2.180199   1.083788   2.135716
    10  H    5.627819   4.702071   3.851294   3.396090   2.160959
    11  H    4.217804   2.937231   3.423600   3.919685   3.425341
    12  N    1.398830   2.251282   1.365942   2.515435   3.711238
    13  H    2.192056   1.079131   3.313934   4.608900   5.018857
    14  B    1.523175   2.568073   3.734220   5.076732   6.107034
    15  C    2.548697   3.662361   2.491091   3.094959   4.461121
    16  H    2.903760   4.099791   3.192299   3.812435   5.151418
    17  H    2.876737   4.083449   3.209621   3.849444   5.187695
    18  H    3.405016   4.301705   2.575230   2.636653   4.000167
    19  C    6.031843   5.685180   3.790434   2.509823   1.505753
    20  H    6.613326   6.174711   4.421315   3.232203   2.152425
    21  H    6.249668   6.138709   4.021939   2.620049   2.160378
    22  H    6.612813   6.174796   4.420352   3.230969   2.152252
    23  Cl   2.926123   4.212678   4.767489   5.914736   7.139919
    24  Cl   2.850654   3.192432   5.049113   6.452419   7.281056
                    6          7          8          9         10
     6  C    0.000000
     7  C    1.371633   0.000000
     8  C    2.394043   1.408676   0.000000
     9  H    3.410651   3.918990   3.445776   0.000000
    10  H    1.085212   2.130397   3.383146   4.287483   0.000000
    11  H    2.140783   1.084401   2.168101   5.003347   2.467132
    12  N    4.113868   3.579651   2.256503   2.859985   5.198408
    13  H    4.366252   3.040742   2.232987   5.493039   5.157974
    14  B    6.100220   5.091747   3.736174   5.488734   7.117448
    15  C    5.198178   4.899214   3.657664   2.900039   6.270535
    16  H    5.863115   5.515460   4.251931   3.580751   6.928183
    17  H    5.888367   5.527394   4.256108   3.629523   6.955007
    18  H    4.987831   4.983739   3.943473   2.104768   6.009368
    19  C    2.521536   3.796528   4.303461   2.713020   2.692501
    20  H    2.821593   4.124377   4.789587   3.475242   2.728796
    21  H    3.440171   4.596057   4.836096   2.362583   3.756892
    22  H    2.822918   4.125620   4.789803   3.474275   2.731256
    23  Cl   7.413386   6.579803   5.175443   6.021131   8.477985
    24  Cl   6.964278   5.743862   4.594056   7.026877   7.870663
                   11         12         13         14         15
    11  H    0.000000
    12  N    4.424603   0.000000
    13  H    2.991064   3.291505   0.000000
    14  B    5.504278   2.630934   2.878804   0.000000
    15  C    5.814290   1.450994   4.659652   3.214412   0.000000
    16  H    6.386702   2.104393   5.020187   3.249800   1.090688
    17  H    6.392573   2.102315   4.997721   3.206687   1.090266
    18  H    5.996166   2.076147   5.359413   4.264622   1.087703
    19  C    4.662133   5.018498   6.518524   7.524465   5.506256
    20  H    4.871479   5.668567   6.942074   8.107787   6.204442
    21  H    5.549536   5.068717   7.066937   7.676162   5.262349
    22  H    4.873309   5.667058   6.942861   8.109880   6.200233
    23  Cl   7.127264   3.429332   4.642777   1.770668   3.218003
    24  Cl   5.831863   4.198863   2.845446   1.773643   4.972356
                   16         17         18         19         20
    16  H    0.000000
    17  H    1.777547   0.000000
    18  H    1.768090   1.766031   0.000000
    19  C    6.168760   6.213995   4.812634   0.000000
    20  H    6.740646   7.012338   5.538933   1.093843   0.000000
    21  H    5.892354   5.943978   4.409812   1.091424   1.769362
    22  H    6.968652   6.785175   5.521757   1.093866   1.761923
    23  Cl   2.937573   2.906579   4.279298   8.424335   9.056774
    24  Cl   4.983051   4.930527   6.001565   8.765732   9.281951
                   21         22         23         24
    21  H    0.000000
    22  H    1.769319   0.000000
    23  Cl   8.359937   9.065266   0.000000
    24  Cl   9.070871   9.280706   2.994797   0.000000
 Symmetry turned off by external request.
 Stoichiometry    C10H10BCl2N
 Framework group  C1[X(C10H10BCl2N)]
 Deg. of freedom    66
 Full point group                 C1      NOp   1
 Rotational constants (GHZ):           1.2673762           0.2812562           0.2308499
 General basis read from cards:  (5D, 7F)
 ======================================================================================================
                                       Pseudopotential Parameters
 ======================================================================================================
  Center     Atomic      Valence      Angular      Power
  Number     Number     Electrons     Momentum     of R      Exponent        Coefficient   SO-Coeffient
 ======================================================================================================
    1          6
                                   No pseudopotential on this center.
    2          6
                                   No pseudopotential on this center.
    3          6
                                   No pseudopotential on this center.
    4          6
                                   No pseudopotential on this center.
    5          6
                                   No pseudopotential on this center.
    6          6
                                   No pseudopotential on this center.
    7          6
                                   No pseudopotential on this center.
    8          6
                                   No pseudopotential on this center.
    9          1
                                   No pseudopotential on this center.
   10          1
                                   No pseudopotential on this center.
   11          1
                                   No pseudopotential on this center.
   12          7
                                   No pseudopotential on this center.
   13          1
                                   No pseudopotential on this center.
   14          5
                                   No pseudopotential on this center.
   15          6
                                   No pseudopotential on this center.
   16          1
                                   No pseudopotential on this center.
   17          1
                                   No pseudopotential on this center.
   18          1
                                   No pseudopotential on this center.
   19          6
                                   No pseudopotential on this center.
   20          1
                                   No pseudopotential on this center.
   21          1
                                   No pseudopotential on this center.
   22          1
                                   No pseudopotential on this center.
   23         17
                                   No pseudopotential on this center.
   24         17
                                   No pseudopotential on this center.
 ======================================================================================================
   394 basis functions,   628 primitive gaussians,   408 cartesian basis functions
    58 alpha electrons       58 beta electrons
       nuclear repulsion energy      1001.0736040192 Hartrees.
 NAtoms=   24 NActive=   24 NUniq=   24 SFac= 1.00D+00 NAtFMM=   60 NAOKFM=F Big=F
 Integral buffers will be    131072 words long.
 Raffenetti 2 integral format.
 Two-electron integral symmetry is turned off.
 Nuclear repulsion after empirical dispersion term =     1001.0576062166 Hartrees.
 ------------------------------------------------------------------------------
 Polarizable Continuum Model (PCM)
 =================================
 Model                : PCM.
 Atomic radii         : UFF (Universal Force Field).
 Polarization charges : Total charges.
 Charge compensation  : None.
 Solution method      : On-the-fly selection.
 Cavity type          : Scaled VdW (van der Waals Surface) (Alpha=1.100).
 Cavity algorithm     : GePol (No added spheres)
                        Default sphere list used, NSphG=   24.
                        Lebedev-Laikov grids with approx.  5.0 points / Ang**2.
                        Smoothing algorithm: York/Karplus (Gamma=1.0000).
                        Polarization charges: spherical gaussians, with
                                              point-specific exponents (IZeta= 3).
                        Self-potential: point-specific (ISelfS= 7).
                        Self-field    : sphere-specific E.n sum rule (ISelfD= 2).
 Solvent              : Toluene, Eps=   2.374100 Eps(inf)=   2.238315
 ------------------------------------------------------------------------------
 One-electron integrals computed using PRISM.
   1 Symmetry operations used in ECPInt.
 ECPInt:  NShTT=   11026 NPrTT=   38530 LenC2=   10056 LenP2D=   24983.
 LDataN:  DoStor=T MaxTD1= 4 Len=   56
 Number of processors reduced to 113 by ecpmxn.
 NBasis=   394 RedAO= T EigKep=  1.00D-06  NBF=   394
 NBsUse=   391 1.00D-06 EigRej=  6.48D-07 NBFU=   391
 ExpMin= 3.15D-02 ExpMax= 1.06D+05 ExpMxC= 3.62D+03 IAcc=3 IRadAn=         5 AccDes= 0.00D+00
 Harris functional with IExCor= 4639 and IRadAn=       5 diagonalized for initial guess.
 HarFok:  IExCor= 4639 AccDes= 0.00D+00 IRadAn=         5 IDoV= 1 UseB2=F ITyADJ=14
 ICtDFT=  3500011 ScaDFX=  1.000000  1.000000  1.000000  1.000000
 FoFCou: FMM=F IPFlag=           0 FMFlag=      100000 FMFlg1=           0
         NFxFlg=           0 DoJE=T BraDBF=F KetDBF=T FulRan=T
         wScrn=  0.000000 ICntrl=       500 IOpCl=  0 I1Cent=   200000004 NGrid=           0
         NMat0=    1 NMatS0=      1 NMatT0=    0 NMatD0=    1 NMtDS0=    0 NMtDT0=    0
 Symmetry not used in FoFCou.
 Requested convergence on RMS density matrix=1.00D-08 within 300 cycles.
 Requested convergence on MAX density matrix=1.00D-06.
 Requested convergence on             energy=1.00D-06.
 No special actions if energy rises.
 Inv3:  Mode=1 IEnd=    12350523.
 Iteration    1 A*A^-1 deviation from unit magnitude is 3.33D-15 for   2025.
 Iteration    1 A*A^-1 deviation from orthogonality  is 1.66D-15 for   1531   1188.
 Iteration    1 A^-1*A deviation from unit magnitude is 3.11D-15 for   1275.
 Iteration    1 A^-1*A deviation from orthogonality  is 1.72D-15 for   1274    106.
 Error on total polarization charges =  0.01176
 SCF Done:  E(RwB97XD) =  -1387.17470645     A.U. after   16 cycles
            NFock= 16  Conv=0.50D-08     -V/T= 2.0029

 **********************************************************************

            Population analysis using the SCF Density.

 **********************************************************************

 Alpha  occ. eigenvalues -- -101.72546-101.72075 -14.49346 -10.33243 -10.32601
 Alpha  occ. eigenvalues --  -10.31571 -10.30752 -10.29761 -10.29647 -10.29408
 Alpha  occ. eigenvalues --  -10.29192 -10.28656 -10.28303  -9.59606  -9.59122
 Alpha  occ. eigenvalues --   -7.34262  -7.33786  -7.33731  -7.33564  -7.33236
 Alpha  occ. eigenvalues --   -7.33089  -6.95311  -1.10393  -0.96664  -0.96210
 Alpha  occ. eigenvalues --   -0.92776  -0.91665  -0.86159  -0.85776  -0.79899
 Alpha  occ. eigenvalues --   -0.78516  -0.71804  -0.68947  -0.67043  -0.62805
 Alpha  occ. eigenvalues --   -0.59514  -0.58214  -0.56623  -0.55519  -0.54066
 Alpha  occ. eigenvalues --   -0.52678  -0.51882  -0.51420  -0.50303  -0.48807
 Alpha  occ. eigenvalues --   -0.48456  -0.47836  -0.46958  -0.46354  -0.44713
 Alpha  occ. eigenvalues --   -0.42732  -0.41739  -0.41208  -0.41195  -0.39447
 Alpha  occ. eigenvalues --   -0.37179  -0.30679  -0.29247
 Alpha virt. eigenvalues --   -0.01581   0.03850   0.04823   0.04962   0.06020
 Alpha virt. eigenvalues --    0.06491   0.06565   0.06685   0.07575   0.07860
 Alpha virt. eigenvalues --    0.08633   0.08844   0.08983   0.09681   0.10316
 Alpha virt. eigenvalues --    0.10957   0.11762   0.12335   0.13191   0.13381
 Alpha virt. eigenvalues --    0.13571   0.14302   0.15026   0.15346   0.15852
 Alpha virt. eigenvalues --    0.15937   0.16435   0.16561   0.16995   0.17303
 Alpha virt. eigenvalues --    0.17509   0.17539   0.18208   0.18574   0.18875
 Alpha virt. eigenvalues --    0.19081   0.19418   0.20126   0.20224   0.20466
 Alpha virt. eigenvalues --    0.20605   0.21129   0.21468   0.21711   0.21816
 Alpha virt. eigenvalues --    0.22410   0.22686   0.23607   0.23667   0.24161
 Alpha virt. eigenvalues --    0.24308   0.24790   0.25631   0.25733   0.26092
 Alpha virt. eigenvalues --    0.26232   0.27385   0.27915   0.28448   0.29440
 Alpha virt. eigenvalues --    0.29581   0.29827   0.30404   0.30725   0.30879
 Alpha virt. eigenvalues --    0.32014   0.32377   0.32691   0.32887   0.33837
 Alpha virt. eigenvalues --    0.34216   0.34427   0.35244   0.36098   0.36893
 Alpha virt. eigenvalues --    0.37215   0.37922   0.38343   0.38541   0.39793
 Alpha virt. eigenvalues --    0.40649   0.41533   0.42267   0.43031   0.43709
 Alpha virt. eigenvalues --    0.45407   0.47369   0.48675   0.50548   0.50646
 Alpha virt. eigenvalues --    0.52427   0.52576   0.52680   0.53660   0.54310
 Alpha virt. eigenvalues --    0.54691   0.55778   0.56265   0.57814   0.58042
 Alpha virt. eigenvalues --    0.58552   0.60250   0.61761   0.62106   0.62138
 Alpha virt. eigenvalues --    0.63880   0.64666   0.65249   0.65945   0.66648
 Alpha virt. eigenvalues --    0.67252   0.67358   0.68355   0.68604   0.70119
 Alpha virt. eigenvalues --    0.70237   0.70823   0.72310   0.72498   0.73757
 Alpha virt. eigenvalues --    0.73859   0.74885   0.75079   0.76166   0.77289
 Alpha virt. eigenvalues --    0.77642   0.79789   0.79992   0.81451   0.82283
 Alpha virt. eigenvalues --    0.83594   0.84082   0.84271   0.86494   0.87336
 Alpha virt. eigenvalues --    0.89952   0.91586   0.93139   0.94778   0.94932
 Alpha virt. eigenvalues --    0.95894   0.96290   0.96536   0.97248   0.98072
 Alpha virt. eigenvalues --    0.98942   1.00188   1.00682   1.00978   1.01232
 Alpha virt. eigenvalues --    1.01944   1.02535   1.03580   1.04343   1.04960
 Alpha virt. eigenvalues --    1.05240   1.07276   1.07540   1.08232   1.10444
 Alpha virt. eigenvalues --    1.11213   1.12554   1.13341   1.14922   1.15611
 Alpha virt. eigenvalues --    1.17952   1.18196   1.19800   1.20838   1.22743
 Alpha virt. eigenvalues --    1.23880   1.26893   1.33220   1.34819   1.35367
 Alpha virt. eigenvalues --    1.40496   1.43737   1.44222   1.46389   1.47293
 Alpha virt. eigenvalues --    1.49006   1.52853   1.53527   1.54226   1.54520
 Alpha virt. eigenvalues --    1.55038   1.55247   1.59412   1.60066   1.62019
 Alpha virt. eigenvalues --    1.63131   1.63817   1.64910   1.65681   1.66701
 Alpha virt. eigenvalues --    1.68748   1.68827   1.69447   1.70819   1.72497
 Alpha virt. eigenvalues --    1.76886   1.77185   1.78521   1.78554   1.81619
 Alpha virt. eigenvalues --    1.82716   1.85544   1.86423   1.87088   1.89832
 Alpha virt. eigenvalues --    1.91431   1.94264   1.94367   1.95813   1.96644
 Alpha virt. eigenvalues --    1.97734   2.00841   2.01918   2.02207   2.06261
 Alpha virt. eigenvalues --    2.08100   2.10710   2.11082   2.11831   2.14464
 Alpha virt. eigenvalues --    2.14726   2.16428   2.18701   2.22853   2.23086
 Alpha virt. eigenvalues --    2.25751   2.26091   2.28339   2.33226   2.36878
 Alpha virt. eigenvalues --    2.37128   2.38112   2.39724   2.40722   2.41890
 Alpha virt. eigenvalues --    2.42297   2.43981   2.44911   2.50379   2.50960
 Alpha virt. eigenvalues --    2.53083   2.54159   2.58049   2.58642   2.59235
 Alpha virt. eigenvalues --    2.59973   2.62042   2.62923   2.63921   2.65410
 Alpha virt. eigenvalues --    2.68684   2.68992   2.71276   2.72492   2.74836
 Alpha virt. eigenvalues --    2.76055   2.77543   2.77866   2.79548   2.81365
 Alpha virt. eigenvalues --    2.82802   2.84421   2.86462   2.86997   2.87604
 Alpha virt. eigenvalues --    2.89204   2.91141   2.94790   2.95468   2.99361
 Alpha virt. eigenvalues --    3.01097   3.01862   3.06319   3.07690   3.10807
 Alpha virt. eigenvalues --    3.12865   3.15656   3.17651   3.20015   3.22746
 Alpha virt. eigenvalues --    3.29032   3.34939   3.42328   3.47509   3.54172
 Alpha virt. eigenvalues --    3.56643   3.61352   3.67652   3.76128   3.78812
 Alpha virt. eigenvalues --    3.79540   3.85514   3.88048   3.89443   3.93708
 Alpha virt. eigenvalues --    3.94482   4.07013   4.08654   4.14888   4.20145
 Alpha virt. eigenvalues --    4.30888   4.39897   4.54058   4.95322   5.08780
 Alpha virt. eigenvalues --    5.28694   9.89269  10.02441  14.57219  23.73931
 Alpha virt. eigenvalues --   23.96406  24.04705  24.08513  24.09736  24.13710
 Alpha virt. eigenvalues --   24.17879  24.26023  24.26551  24.33129  25.99018
 Alpha virt. eigenvalues --   26.07133  26.16077  26.33864  26.52609  26.68537
 Alpha virt. eigenvalues --   35.74515 215.97541 216.12524
          Condensed to atoms (all electrons):
               1          2          3          4          5          6
     1  C    9.732586  -1.171084   1.086302  -0.217437  -0.745461  -0.360152
     2  C   -1.171084  12.871529  -9.160311  -3.084754  -0.797934   0.280191
     3  C    1.086302  -9.160311  23.863204   4.691046  -2.090097  -1.515484
     4  C   -0.217437  -3.084754   4.691046  10.460909   1.082130  -0.848191
     5  C   -0.745461  -0.797934  -2.090097   1.082130  10.359572  -0.041524
     6  C   -0.360152   0.280191  -1.515484  -0.848191  -0.041524   9.527106
     7  C   -0.593576  -0.493886   0.240883   0.187939  -0.389838   1.121868
     8  C   -1.974119   5.916465  -7.564535  -5.358102  -0.915662  -1.566367
     9  H    0.017127   0.041563  -0.069245   0.335730  -0.089560   0.024460
    10  H   -0.009512   0.020265  -0.010508   0.010513  -0.080351   0.438642
    11  H    0.044115  -0.080134   0.137151   0.035630   0.023086  -0.003304
    12  N    0.210798   0.417116  -0.873525  -0.533479  -0.191668   0.029446
    13  H   -0.269936   0.548850  -0.104766  -0.037735  -0.018374  -0.018594
    14  B    0.131543   0.584767  -0.855107  -0.178502   0.009163  -0.022596
    15  C    0.284309  -0.652620   0.429650   0.669760  -0.078295   0.005198
    16  H    0.002875  -0.009416  -0.040668  -0.000860   0.013236   0.002466
    17  H    0.010765  -0.001176  -0.036674  -0.011306   0.011002   0.002333
    18  H   -0.029098  -0.057778  -0.052977   0.187802   0.078396  -0.011348
    19  C   -0.057704  -0.020082   0.003708  -0.130483  -0.447671  -0.655564
    20  H    0.001248   0.001030  -0.029909  -0.051918   0.009273   0.007658
    21  H   -0.006493  -0.014252   0.021214   0.136625  -0.108221  -0.015330
    22  H    0.000765   0.000793  -0.029865  -0.052787   0.008636   0.010396
    23  Cl  -0.001262   0.023419  -0.036329   0.006434   0.004040  -0.003244
    24  Cl   0.016905   0.108688  -0.221949  -0.035414  -0.003593  -0.008438
               7          8          9         10         11         12
     1  C   -0.593576  -1.974119   0.017127  -0.009512   0.044115   0.210798
     2  C   -0.493886   5.916465   0.041563   0.020265  -0.080134   0.417116
     3  C    0.240883  -7.564535  -0.069245  -0.010508   0.137151  -0.873525
     4  C    0.187939  -5.358102   0.335730   0.010513   0.035630  -0.533479
     5  C   -0.389838  -0.915662  -0.089560  -0.080351   0.023086  -0.191668
     6  C    1.121868  -1.566367   0.024460   0.438642  -0.003304   0.029446
     7  C    7.670269  -1.824854   0.022122  -0.060549   0.400160   0.000622
     8  C   -1.824854  18.363084   0.066384   0.047849  -0.195394   0.468305
     9  H    0.022122   0.066384   0.570905   0.000478  -0.000120   0.004950
    10  H   -0.060549   0.047849   0.000478   0.466557  -0.014466   0.002189
    11  H    0.400160  -0.195394  -0.000120  -0.014466   0.469188  -0.007861
    12  N    0.000622   0.468305   0.004950   0.002189  -0.007861   7.134970
    13  H    0.005941   0.145825   0.002414   0.001841  -0.008361   0.021363
    14  B   -0.022576   0.265556   0.007919   0.000589  -0.009048  -0.018602
    15  C    0.046125  -1.163750  -0.025763  -0.000254   0.005194   0.206442
    16  H   -0.001602   0.004809   0.001116   0.000028  -0.000214  -0.028107
    17  H   -0.001353   0.015927   0.002335   0.000029  -0.000241  -0.034407
    18  H   -0.003023  -0.098374  -0.026206  -0.000691   0.000871  -0.058996
    19  C    0.034256   0.057452  -0.023809  -0.018488  -0.003426  -0.020300
    20  H    0.007952   0.005838  -0.001079  -0.002157   0.000255   0.000652
    21  H    0.006013  -0.042673  -0.014352   0.001833   0.000535  -0.002799
    22  H    0.007394   0.004564  -0.000683  -0.001893   0.000200   0.000635
    23  Cl  -0.013319  -0.014974   0.002636   0.000016  -0.000523  -0.009512
    24  Cl  -0.042975  -0.077837   0.001428   0.000015  -0.003688   0.017865
              13         14         15         16         17         18
     1  C   -0.269936   0.131543   0.284309   0.002875   0.010765  -0.029098
     2  C    0.548850   0.584767  -0.652620  -0.009416  -0.001176  -0.057778
     3  C   -0.104766  -0.855107   0.429650  -0.040668  -0.036674  -0.052977
     4  C   -0.037735  -0.178502   0.669760  -0.000860  -0.011306   0.187802
     5  C   -0.018374   0.009163  -0.078295   0.013236   0.011002   0.078396
     6  C   -0.018594  -0.022596   0.005198   0.002466   0.002333  -0.011348
     7  C    0.005941  -0.022576   0.046125  -0.001602  -0.001353  -0.003023
     8  C    0.145825   0.265556  -1.163750   0.004809   0.015927  -0.098374
     9  H    0.002414   0.007919  -0.025763   0.001116   0.002335  -0.026206
    10  H    0.001841   0.000589  -0.000254   0.000028   0.000029  -0.000691
    11  H   -0.008361  -0.009048   0.005194  -0.000214  -0.000241   0.000871
    12  N    0.021363  -0.018602   0.206442  -0.028107  -0.034407  -0.058996
    13  H    0.520636  -0.033023  -0.009262  -0.000068   0.000249  -0.002265
    14  B   -0.033023   4.579533  -0.075463   0.000675  -0.002295  -0.008906
    15  C   -0.009262  -0.075463   5.719014   0.387124   0.374729   0.454680
    16  H   -0.000068   0.000675   0.387124   0.549659  -0.076555  -0.026080
    17  H    0.000249  -0.002295   0.374729  -0.076555   0.564605  -0.029800
    18  H   -0.002265  -0.008906   0.454680  -0.026080  -0.029800   0.540854
    19  C    0.000580  -0.002765  -0.012655   0.000461   0.000506   0.008369
    20  H    0.000025   0.000100  -0.000288   0.000008  -0.000026   0.000204
    21  H   -0.000379  -0.000865   0.002081  -0.000175  -0.000167   0.004896
    22  H    0.000031   0.000097  -0.000275  -0.000013   0.000018   0.000083
    23  Cl   0.004518   0.283410  -0.145092   0.033033   0.032626  -0.025296
    24  Cl   0.045833   0.362654  -0.031317   0.002767   0.002685  -0.004662
              19         20         21         22         23         24
     1  C   -0.057704   0.001248  -0.006493   0.000765  -0.001262   0.016905
     2  C   -0.020082   0.001030  -0.014252   0.000793   0.023419   0.108688
     3  C    0.003708  -0.029909   0.021214  -0.029865  -0.036329  -0.221949
     4  C   -0.130483  -0.051918   0.136625  -0.052787   0.006434  -0.035414
     5  C   -0.447671   0.009273  -0.108221   0.008636   0.004040  -0.003593
     6  C   -0.655564   0.007658  -0.015330   0.010396  -0.003244  -0.008438
     7  C    0.034256   0.007952   0.006013   0.007394  -0.013319  -0.042975
     8  C    0.057452   0.005838  -0.042673   0.004564  -0.014974  -0.077837
     9  H   -0.023809  -0.001079  -0.014352  -0.000683   0.002636   0.001428
    10  H   -0.018488  -0.002157   0.001833  -0.001893   0.000016   0.000015
    11  H   -0.003426   0.000255   0.000535   0.000200  -0.000523  -0.003688
    12  N   -0.020300   0.000652  -0.002799   0.000635  -0.009512   0.017865
    13  H    0.000580   0.000025  -0.000379   0.000031   0.004518   0.045833
    14  B   -0.002765   0.000100  -0.000865   0.000097   0.283410   0.362654
    15  C   -0.012655  -0.000288   0.002081  -0.000275  -0.145092  -0.031317
    16  H    0.000461   0.000008  -0.000175  -0.000013   0.033033   0.002767
    17  H    0.000506  -0.000026  -0.000167   0.000018   0.032626   0.002685
    18  H    0.008369   0.000204   0.004896   0.000083  -0.025296  -0.004662
    19  C    6.561801   0.401039   0.367864   0.402014  -0.000005   0.000083
    20  H    0.401039   0.539381  -0.016492  -0.058920   0.000002   0.000009
    21  H    0.367864  -0.016492   0.516284  -0.016437  -0.000048  -0.000067
    22  H    0.402014  -0.058920  -0.016437   0.538904  -0.000000   0.000008
    23  Cl  -0.000005   0.000002  -0.000048  -0.000000  16.914729  -0.065140
    24  Cl   0.000083   0.000009  -0.000067   0.000008  -0.065140  16.957625
 Mulliken charges:
               1
     1  C   -0.103504
     2  C    0.728751
     3  C   -1.781211
     4  C   -1.263547
     5  C    0.399716
     6  C   -0.379627
     7  C   -0.303990
     8  C    1.434584
     9  H    0.149251
    10  H    0.208027
    11  H    0.210395
    12  N    0.263903
    13  H    0.204660
    14  B    0.003744
    15  C   -0.389269
    16  H    0.185502
    17  H    0.176190
    18  H    0.159347
    19  C   -0.445180
    20  H    0.186116
    21  H    0.181408
    22  H    0.186335
    23  Cl   0.009881
    24  Cl  -0.021483
 Sum of Mulliken charges =  -0.00000
 Mulliken charges with hydrogens summed into heavy atoms:
               1
     1  C   -0.103504
     2  C    0.933411
     3  C   -1.781211
     4  C   -1.114296
     5  C    0.399716
     6  C   -0.171600
     7  C   -0.093595
     8  C    1.434584
    12  N    0.263903
    14  B    0.003744
    15  C    0.131771
    19  C    0.108679
    23  Cl   0.009881
    24  Cl  -0.021483
 Electronic spatial extent (au):  <R**2>=           5284.1774
 Charge=             -0.0000 electrons
 Dipole moment (field-independent basis, Debye):
    X=             -0.1932    Y=              3.8104    Z=             -0.0901  Tot=              3.8163
 Quadrupole moment (field-independent basis, Debye-Ang):
   XX=            -88.8881   YY=            -96.8572   ZZ=            -99.2657
   XY=             -0.8428   XZ=             -0.7111   YZ=             -0.9119
 Traceless Quadrupole moment (field-independent basis, Debye-Ang):
   XX=              6.1156   YY=             -1.8535   ZZ=             -4.2621
   XY=             -0.8428   XZ=             -0.7111   YZ=             -0.9119
 Octapole moment (field-independent basis, Debye-Ang**2):
  XXX=            378.2129  YYY=            140.9176  ZZZ=             39.3393  XYY=            116.9767
  XXY=             38.6505  XXZ=             16.3202  XZZ=            156.5943  YZZ=             20.5479
  YYZ=             13.2975  XYZ=             -0.0519
 Hexadecapole moment (field-independent basis, Debye-Ang**3):
 XXXX=          -3074.1484 YYYY=          -3725.0609 ZZZZ=           -144.3389 XXXY=            613.5265
 XXXZ=            -30.0785 YYYX=            600.9166 YYYZ=            -33.1123 ZZZX=            -15.4933
 ZZZY=            -19.5073 XXYY=          -1085.2232 XXZZ=           -633.6004 YYZZ=           -653.7054
 XXYZ=             -8.3060 YYXZ=             -3.9363 ZZXY=            234.1917
 N-N= 1.001057606217D+03 E-N=-5.273527315944D+03  KE= 1.383184827097D+03
 Breneman (CHELPG) radii used.
 Generate Potential Derived Charges using the Breneman model, NDens= 1.
 Grid spacing= 0.300 Box extension= 2.800
 NStep X,Y,Z=   42     50     26   Total possible points=       54600
 Number of Points to Fit=   14992

 **********************************************************************

            Electrostatic Properties Using The SCF Density.

 **********************************************************************

       Atomic Center    1 is at  -1.098610 -1.233073 -0.147789
       Atomic Center    2 is at  -2.482100 -1.266316 -0.054394
       Atomic Center    3 is at  -1.818723  0.897376 -0.145005
       Atomic Center    4 is at  -1.941214  2.298774 -0.165665
       Atomic Center    5 is at  -3.202295  2.851602 -0.092500
       Atomic Center    6 is at  -4.345866  2.013051  0.001878
       Atomic Center    7 is at  -4.237103  0.645911  0.023675
       Atomic Center    8 is at  -2.956248  0.064291 -0.050462
       Atomic Center    9 is at  -1.073375  2.944218 -0.235343
       Atomic Center   10 is at  -5.325228  2.477138  0.058080
       Atomic Center   11 is at  -5.118894  0.018948  0.096398
       Atomic Center   12 is at  -0.705404  0.108177 -0.204028
       Atomic Center   13 is at  -3.076879 -2.164725  0.005794
       Atomic Center   14 is at  -0.220392 -2.477414 -0.168052
       Atomic Center   15 is at   0.650415  0.613396 -0.313081
       Atomic Center   16 is at   1.243427  0.331754  0.557904
       Atomic Center   17 is at   1.134295  0.234494 -1.213622
       Atomic Center   18 is at   0.617971  1.698991 -0.372478
       Atomic Center   19 is at  -3.393397  4.345071 -0.110494
       Atomic Center   20 is at  -3.899287  4.682712  0.798663
       Atomic Center   21 is at  -2.439792  4.870884 -0.183735
       Atomic Center   22 is at  -4.014252  4.646557 -0.959133
       Atomic Center   23 is at   1.548395 -2.476127 -0.249644
       Atomic Center   24 is at  -0.975940 -4.080716 -0.101883
   14992 points will be used for fitting atomic charges
 Fitting point charges to electrostatic potential
 Charges from ESP fit, RMS=   0.00451 RRMS=   0.36769:
 ESP charges:
               1
     1  C   -0.005427
     2  C   -0.402191
     3  C    0.158119
     4  C   -0.361388
     5  C    0.225451
     6  C   -0.231899
     7  C   -0.229457
     8  C    0.208837
     9  H    0.177578
    10  H    0.137336
    11  H    0.151201
    12  N   -0.148664
    13  H    0.198164
    14  B    0.378976
    15  C    0.027565
    16  H    0.048168
    17  H    0.048951
    18  H    0.051610
    19  C   -0.284178
    20  H    0.085250
    21  H    0.085512
    22  H    0.084834
    23  Cl  -0.186800
    24  Cl  -0.217548
 Sum of ESP charges =   0.00000
 ESP charges with hydrogens summed into heavy atoms:
               1
     1  C   -0.005427
     2  C   -0.204027
     3  C    0.158119
     4  C   -0.183810
     5  C    0.225451
     6  C   -0.094563
     7  C   -0.078256
     8  C    0.208837
    12  N   -0.148664
    14  B    0.378976
    15  C    0.176293
    19  C   -0.028582
    23  Cl  -0.186800
    24  Cl  -0.217548
 Charge=   0.00000 Dipole=    -0.2612     3.8803    -0.0878 Tot=     3.8901
 -----------------------------------------------------------------

              Electrostatic Properties (Atomic Units)

 -----------------------------------------------------------------
    Center     Electric         -------- Electric Field --------
               Potential          X             Y             Z
 -----------------------------------------------------------------
    1 Atom    -14.746707
    2 Atom    -14.768829
    3 Atom    -14.730201
    4 Atom    -14.765425
    5 Atom    -14.753108
    6 Atom    -14.775483
    7 Atom    -14.766085
    8 Atom    -14.772711
    9 Atom     -1.085898
   10 Atom     -1.103551
   11 Atom     -1.097842
   12 Atom    -18.329000
   13 Atom     -1.091472
   14 Atom    -11.356653
   15 Atom    -14.723469
   16 Atom     -1.093411
   17 Atom     -1.092988
   18 Atom     -1.081093
   19 Atom    -14.768699
   20 Atom     -1.105904
   21 Atom     -1.106806
   22 Atom     -1.105885
   23 Atom    -64.404839
   24 Atom    -64.413083
 -----------------------------------------------------------------
 Unable to Open any file for archive entry.
 1\1\GINC-IRENE4709\SP\RwB97XD\GenECP\C10H10B1Cl2N1\PENASFRA\11-Apr-202
 4\0\\# wb97xd/genecp scrf=(solvent=toluene,pcm) nosymm pop=(chelpg) sc
 fcyc=300\\cl_indole_chelpg\\0,1\C,0,-1.09861,-1.233073,-0.147789\C,0,-
 2.4821,-1.266316,-0.054394\C,0,-1.818723,0.897376,-0.145005\C,0,-1.941
 214,2.298774,-0.165665\C,0,-3.202295,2.851602,-0.0925\C,0,-4.345866,2.
 013051,0.001878\C,0,-4.237103,0.645911,0.023675\C,0,-2.956248,0.064291
 ,-0.050462\H,0,-1.073375,2.944218,-0.235343\H,0,-5.325228,2.477138,0.0
 5808\H,0,-5.118894,0.018948,0.096398\N,0,-0.705404,0.108177,-0.204028\
 H,0,-3.076879,-2.164725,0.005794\B,0,-0.220392,-2.477414,-0.168052\C,0
 ,0.650415,0.613396,-0.313081\H,0,1.243427,0.331754,0.557904\H,0,1.1342
 95,0.234494,-1.213622\H,0,0.617971,1.698991,-0.372478\C,0,-3.393397,4.
 345071,-0.110494\H,0,-3.899287,4.682712,0.798663\H,0,-2.439792,4.87088
 4,-0.183735\H,0,-4.014252,4.646557,-0.959133\Cl,0,1.548395,-2.476127,-
 0.249644\Cl,0,-0.97594,-4.080716,-0.101883\\Version=AS64L-G16RevC.02\H
 F=-1387.1747065\RMSD=5.018e-09\Dipole=-0.0759967,1.4991086,-0.0354494\
 Quadrupole=4.5467841,-1.3780487,-3.1687354,-0.6266239,-0.5286975,-0.67
 79951\PG=C01 [X(C10H10B1Cl2N1)]\\@
 The archive entry for this job was punched.


 STEINBACH'S GUIDELINES FOR SYSTEMS PROGRAMMING:
 NEVER TEST FOR AN ERROR CONDITION YOU DON'T KNOW HOW
 TO HANDLE.
 Job cpu time:       0 days  0 hours 48 minutes 15.6 seconds.
 Elapsed time:       0 days  0 hours  0 minutes 29.7 seconds.
 File lengths (MBytes):  RWF=    154 Int=      0 D2E=      0 Chk=     11 Scr=      1
 Normal termination of Gaussian 16 at Thu Apr 11 15:53:26 2024.
