 Entering Gaussian System, Link 0=/ccc/products/gaussian-16-C.02/system/default/g16/g16
 Input=cl_naphtoxanthene_chelpg.gjf
 Output=cl_naphtoxanthene_chelpg.log
 Initial command:
 /ccc/products/gaussian-16-C.02/system/default/g16/l1.exe "/ccc/scratch/cont003/gen7343/penasfra/flp/b-n_flp/cl_naphtoxanthene/reac/Gau-433787.inp" -scrdir="/ccc/scratch/cont003/gen7343/penasfra/flp/b-n_flp/cl_naphtoxanthene/reac/"
 Entering Link 1 = /ccc/products/gaussian-16-C.02/system/default/g16/l1.exe PID=    433836.
  
 Copyright (c) 1988-2021, Gaussian, Inc.  All Rights Reserved.
  
 This is part of the Gaussian(R) 16 program.  It is based on
 the Gaussian(R) 09 system (copyright 2009, Gaussian, Inc.),
 the Gaussian(R) 03 system (copyright 2003, Gaussian, Inc.),
 the Gaussian(R) 98 system (copyright 1998, Gaussian, Inc.),
 the Gaussian(R) 94 system (copyright 1995, Gaussian, Inc.),
 the Gaussian 92(TM) system (copyright 1992, Gaussian, Inc.),
 the Gaussian 90(TM) system (copyright 1990, Gaussian, Inc.),
 the Gaussian 88(TM) system (copyright 1988, Gaussian, Inc.),
 the Gaussian 86(TM) system (copyright 1986, Carnegie Mellon
 University), and the Gaussian 82(TM) system (copyright 1983,
 Carnegie Mellon University). Gaussian is a federally registered
 trademark of Gaussian, Inc.
  
 This software contains proprietary and confidential information,
 including trade secrets, belonging to Gaussian, Inc.
  
 This software is provided under written license and may be
 used, copied, transmitted, or stored only in accord with that
 written license.
  
 The following legend is applicable only to US Government
 contracts under FAR:
  
                    RESTRICTED RIGHTS LEGEND
  
 Use, reproduction and disclosure by the US Government is
 subject to restrictions as set forth in subparagraphs (a)
 and (c) of the Commercial Computer Software - Restricted
 Rights clause in FAR 52.227-19.
  
 Gaussian, Inc.
 340 Quinnipiac St., Bldg. 40, Wallingford CT 06492
  
  
 ---------------------------------------------------------------
 Warning -- This program may not be used in any manner that
 competes with the business of Gaussian, Inc. or will provide
 assistance to any competitor of Gaussian, Inc.  The licensee
 of this program is prohibited from giving any competitor of
 Gaussian, Inc. access to this program.  By using this program,
 the user acknowledges that Gaussian, Inc. is engaged in the
 business of creating and licensing software in the field of
 computational chemistry and represents and warrants to the
 licensee that it is not a competitor of Gaussian, Inc. and that
 it will not use this program in any manner prohibited above.
 ---------------------------------------------------------------
  

 Cite this work as:
 Gaussian 16, Revision C.02,
 M. J. Frisch, G. W. Trucks, H. B. Schlegel, G. E. Scuseria, 
 M. A. Robb, J. R. Cheeseman, G. Scalmani, V. Barone, 
 G. A. Petersson, H. Nakatsuji, X. Li, M. Caricato, A. V. Marenich, 
 J. Bloino, B. G. Janesko, R. Gomperts, B. Mennucci, H. P. Hratchian, 
 J. V. Ortiz, A. F. Izmaylov, J. L. Sonnenberg, D. Williams-Young, 
 F. Ding, F. Lipparini, F. Egidi, J. Goings, B. Peng, A. Petrone, 
 T. Henderson, D. Ranasinghe, V. G. Zakrzewski, J. Gao, N. Rega, 
 G. Zheng, W. Liang, M. Hada, M. Ehara, K. Toyota, R. Fukuda, 
 J. Hasegawa, M. Ishida, T. Nakajima, Y. Honda, O. Kitao, H. Nakai, 
 T. Vreven, K. Throssell, J. A. Montgomery, Jr., J. E. Peralta, 
 F. Ogliaro, M. J. Bearpark, J. J. Heyd, E. N. Brothers, K. N. Kudin, 
 V. N. Staroverov, T. A. Keith, R. Kobayashi, J. Normand, 
 K. Raghavachari, A. P. Rendell, J. C. Burant, S. S. Iyengar, 
 J. Tomasi, M. Cossi, J. M. Millam, M. Klene, C. Adamo, R. Cammi, 
 J. W. Ochterski, R. L. Martin, K. Morokuma, O. Farkas, 
 J. B. Foresman, and D. J. Fox, Gaussian, Inc., Wallingford CT, 2019.
 
 ******************************************
 Gaussian 16:  AS64L-G16RevC.02  7-Dec-2021
                11-Apr-2024 
 ******************************************
 %nprocshared=128
 Will use up to  128 processors via shared memory.
 %mem=30GB
 %chk=cl_naphtoxanthene_chelpg.chk
 ----------------------------------------------------------------------
 # wb97xd/genecp scrf=(solvent=toluene,pcm) nosymm pop=(chelpg) scfcyc=
 300
 ----------------------------------------------------------------------
 1/38=1,172=1/1;
 2/12=2,15=1,17=6,18=5,40=1/2;
 3/5=7,11=2,16=1,17=8,25=1,30=1,70=2201,72=13,74=-58/1,2,3;
 4//1;
 5/5=2,7=300,38=5,53=13/2;
 6/7=2,8=2,9=2,10=2,15=8,20=3,28=1/1,2;
 99/5=1,9=1/99;
 ------------------------
 cl_naphtoxanthene_chelpg
 ------------------------
 Symbolic Z-matrix:
 Charge =  0 Multiplicity = 1
 C                    -2.12566   1.60815   1.18328 
 C                    -0.91257   1.82277   1.90231 
 C                    -0.12393   2.92406   1.7223 
 C                    -0.50646   3.92503   0.79964 
 C                    -1.71527   3.76653   0.09358 
 C                    -2.5085    2.61485   0.29522 
 H                    -0.59885   1.06592   2.61091 
 H                     0.79871   3.0368    2.27995 
 C                    -2.13483   4.75696  -0.83797 
 O                    -3.68405   2.48262  -0.36163 
 C                    -3.36967   4.56757  -1.52095 
 C                    -4.13356   3.4258   -1.24984 
 C                    -3.80844   5.51691  -2.46792 
 C                    -5.35973   3.20033  -1.87026 
 C                    -5.02663   5.2759   -3.12247 
 C                    -5.77391   4.15854  -2.82123 
 H                    -5.38821   5.98413  -3.85985 
 H                    -6.71911   4.01198  -3.32831 
 B                    -2.88773   0.28375   1.38736 
 N                    -6.111     2.05236  -1.56747 
 C                    -6.59845   1.96393  -0.19555 
 H                    -7.43217   2.66158  -0.0169 
 H                    -6.94894   0.94724  -0.00489 
 H                    -5.79977   2.18011   0.5106 
 C                    -7.12112   1.66003  -2.53021 
 H                    -7.45017   0.6464   -2.29134 
 H                    -8.01047   2.31221  -2.52214 
 H                    -6.70063   1.65036  -3.53725 
 C                    -2.98608   6.6665   -2.70344 
 H                    -3.32086   7.39994  -3.42935 
 C                    -1.81611   6.847    -2.03714 
 H                    -1.20965   7.72651  -2.22586 
 C                    -1.35577   5.88735  -1.07838 
 C                    -0.13558   6.03083  -0.35602 
 C                     0.271     5.09387   0.54652 
 H                     0.47521   6.90966  -0.53585 
 H                     1.20231   5.22331   1.08686 
 Cl                   -3.98416  -0.43942   0.21395 
 Cl                   -2.62723  -0.66947   2.86507 
 
                          Input orientation:                          
 ---------------------------------------------------------------------
 Center     Atomic      Atomic             Coordinates (Angstroms)
 Number     Number       Type             X           Y           Z
 ---------------------------------------------------------------------
      1          6           0       -2.125657    1.608150    1.183284
      2          6           0       -0.912572    1.822768    1.902305
      3          6           0       -0.123931    2.924057    1.722299
      4          6           0       -0.506461    3.925026    0.799635
      5          6           0       -1.715266    3.766532    0.093582
      6          6           0       -2.508499    2.614846    0.295222
      7          1           0       -0.598852    1.065920    2.610911
      8          1           0        0.798708    3.036799    2.279952
      9          6           0       -2.134833    4.756959   -0.837965
     10          8           0       -3.684054    2.482618   -0.361626
     11          6           0       -3.369673    4.567565   -1.520952
     12          6           0       -4.133565    3.425804   -1.249840
     13          6           0       -3.808442    5.516905   -2.467922
     14          6           0       -5.359726    3.200325   -1.870255
     15          6           0       -5.026632    5.275902   -3.122473
     16          6           0       -5.773906    4.158536   -2.821227
     17          1           0       -5.388206    5.984127   -3.859854
     18          1           0       -6.719113    4.011979   -3.328308
     19          5           0       -2.887733    0.283754    1.387357
     20          7           0       -6.111000    2.052364   -1.567473
     21          6           0       -6.598453    1.963932   -0.195551
     22          1           0       -7.432168    2.661583   -0.016903
     23          1           0       -6.948936    0.947244   -0.004890
     24          1           0       -5.799770    2.180110    0.510595
     25          6           0       -7.121119    1.660025   -2.530205
     26          1           0       -7.450174    0.646403   -2.291340
     27          1           0       -8.010470    2.312208   -2.522144
     28          1           0       -6.700630    1.650362   -3.537254
     29          6           0       -2.986082    6.666500   -2.703440
     30          1           0       -3.320856    7.399941   -3.429347
     31          6           0       -1.816113    6.847003   -2.037143
     32          1           0       -1.209646    7.726506   -2.225864
     33          6           0       -1.355766    5.887351   -1.078378
     34          6           0       -0.135576    6.030834   -0.356021
     35          6           0        0.271000    5.093873    0.546519
     36          1           0        0.475209    6.909664   -0.535849
     37          1           0        1.202314    5.223311    1.086861
     38         17           0       -3.984162   -0.439420    0.213953
     39         17           0       -2.627226   -0.669470    2.865073
 ---------------------------------------------------------------------
                    Distance matrix (angstroms):
                    1          2          3          4          5
     1  C    0.000000
     2  C    1.426404   0.000000
     3  C    2.455413   1.366453   0.000000
     4  C    2.852525   2.408380   1.414064   0.000000
     5  C    2.452445   2.773809   2.427927   1.408844   0.000000
     6  C    1.395944   2.399393   2.796127   2.445232   1.412890
     7  H    2.159460   1.083218   2.113730   3.385815   3.857024
     8  H    3.434477   2.131893   1.083951   2.164198   3.410688
     9  C    3.741728   4.196722   3.736069   2.454678   1.422941
    10  O    2.362211   3.638942   4.148745   3.677794   2.394113
    11  C    4.197452   5.028911   4.873873   3.741118   2.446515
    12  C    3.640831   4.783361   5.016226   4.195885   2.787301
    13  C    5.607266   6.413392   6.152758   4.910610   3.742525
    14  C    4.724227   5.992249   6.355810   5.586384   4.178437
    15  C    6.356698   7.355135   7.282820   6.135124   4.856578
    16  C    5.987512   7.169389   7.354576   6.396182   5.012219
    17  H    7.431463   8.399446   8.260572   7.055648   5.834198
    18  H    6.872605   8.115903   8.377866   7.459525   6.066965
    19  B    1.541568   2.556364   3.836924   4.390300   3.895931
    20  N    4.862813   6.254257   6.886759   6.365605   5.001995
    21  C    4.694004   6.062192   6.820515   6.476778   5.213298
    22  H    5.541591   6.847781   7.516917   7.087203   5.823752
    23  H    5.011245   6.390745   7.312432   7.142824   5.945535
    24  H    3.778724   5.094041   5.851225   5.580985   4.401569
    25  C    6.224736   7.630183   8.285059   7.744144   6.367486
    26  H    6.430276   7.855618   8.658570   8.277599   6.950700
    27  H    6.989772   8.378273   8.977035   8.363346   6.970414
    28  H    6.573860   7.944819   8.516934   7.896229   6.520353
    29  C    6.436914   6.998148   6.464128   5.092714   4.224704
    30  H    7.499981   8.082772   7.536135   6.154685   5.309483
    31  C    6.157317   6.448145   5.690904   4.277902   3.746927
    32  H    7.063685   7.210004   6.311124   4.909110   4.617020
    33  C    4.900960   5.059815   4.259380   2.845869   2.449613
    34  C    5.088223   4.838551   3.737862   2.430540   2.797253
    35  C    4.277815   3.733514   2.499306   1.426435   2.431510
    36  H    6.150282   5.809220   4.619877   3.413980   3.882479
    37  H    4.914680   4.086733   2.729336   2.165169   3.408971
    38  Cl   2.930220   4.171653   5.337553   5.611222   4.780419
    39  Cl   2.875333   3.174620   4.526130   5.465626   5.309515
                    6          7          8          9         10
     6  C    0.000000
     7  H    3.377623   0.000000
     8  H    3.880054   2.438662   0.000000
     9  C    2.452017   5.279939   4.613677   0.000000
    10  O    1.353094   4.512370   5.232610   2.792778   0.000000
    11  C    2.802360   6.083688   5.845128   1.423788   2.406216
    12  C    2.384472   5.741833   6.077670   2.436502   1.371344
    13  C    4.212691   7.477117   7.065342   2.456674   3.695789
    14  C    3.627888   6.877678   7.428140   3.726750   2.366208
    15  C    5.010275   8.378596   8.254354   3.721664   4.150570
    16  C    4.770547   8.115022   8.395211   4.187397   3.636732
    17  H    6.075313   9.433847   9.201188   4.606755   5.234720
    18  H    5.728108   9.022814   9.429803   5.269955   4.511289
    19  B    2.602031   2.710691   4.686772   5.052572   2.920286
    20  N    4.094390   6.986826   7.969684   4.863838   2.743948
    21  C    4.170404   6.684150   7.873827   5.304489   2.964850
    22  H    4.933774   7.493047   8.553575   5.755563   3.768185
    23  H    4.752730   6.868775   8.343424   6.195444   3.625478
    24  H    3.326837   5.718592   6.885089   4.678731   2.308362
    25  C    5.492812   8.326104   9.367859   6.108823   4.146421
    26  H    5.914831   8.434967   9.729068   6.874723   4.612932
    27  H    6.188766   9.101295  10.059164   6.583037   4.838879
    28  H    5.761255   8.681774   9.591776   6.146837   4.458362
    29  C    5.063197   8.081317   7.234194   2.801958   4.845217
    30  H    6.117963   9.165907   8.282748   3.886807   5.807141
    31  C    4.881647   7.517117   6.323943   2.430616   5.034324
    32  H    5.845679   8.254142   6.806557   3.405942   6.090685
    33  C    3.731603   6.118004   4.903650   1.393747   4.186510
    34  C    4.209971   5.802386   4.097009   2.419102   5.018124
    35  C    3.732873   4.608987   2.741317   2.796129   4.825540
    36  H    5.295154   6.723470   4.799216   3.396724   6.076887
    37  H    4.604445   4.780254   2.523331   3.880591   5.786718
    38  Cl   3.393041   4.412684   6.263250   5.615060   2.993269
    39  Cl   4.171925   2.681507   5.080927   6.587949   4.632940
                   11         12         13         14         15
    11  C    0.000000
    12  C    1.400232   0.000000
    13  C    1.410857   2.441748   0.000000
    14  C    2.439604   1.392561   2.851356   0.000000
    15  C    2.410835   2.779782   1.403747   2.446839   0.000000
    16  C    2.763758   2.386812   2.415169   1.412112   1.377561
    17  H    3.398762   3.864106   2.156716   3.421822   1.084458
    18  H    3.846292   3.368782   3.387783   2.152355   2.122348
    19  B    5.200150   4.287118   6.564812   5.022865   7.059391
    20  N    3.720655   2.428472   4.256246   1.404957   3.739663
    21  C    4.354379   3.053566   5.056822   2.422343   4.691123
    22  H    4.732737   3.603463   5.224150   2.831991   4.718668
    23  H    5.311901   3.952148   6.067209   3.328896   5.670261
    24  H    3.966421   2.725275   4.896034   2.627342   4.835375
    25  C    4.852394   3.699025   5.084607   2.431165   4.220453
    26  H    5.711348   4.450808   6.084010   3.327131   5.291181
    27  H    5.256046   4.229568   5.284890   2.870567   4.248196
    28  H    4.865267   3.869661   4.945541   2.641835   4.014829
    29  C    2.439457   3.732530   1.432939   4.282844   2.504635
    30  H    3.415656   4.604836   2.169770   4.921842   2.741420
    31  C    2.806393   4.206546   2.433949   5.087564   3.735469
    32  H    3.891211   5.291310   3.419747   6.151092   4.623716
    33  C    2.448168   3.715478   2.843182   4.886601   4.245875
    34  C    3.735988   4.854792   4.267809   6.131593   5.669710
    35  C    4.219708   5.040789   5.089957   6.413376   6.446669
    36  H    4.608576   5.821328   4.901260   7.041754   6.295241
    37  H    5.304126   6.096131   6.150639   7.476455   7.518047
    38  Cl   5.334547   4.135815   6.534611   4.414051   6.699507
    39  Cl   6.871316   5.997736   8.252717   6.698149   8.772417
                   16         17         18         19         20
    16  C    0.000000
    17  H    2.135484   0.000000
    18  H    1.082602   2.437873   0.000000
    19  B    6.407504   8.141243   7.128578   0.000000
    20  N    2.474165   4.608275   2.703781   4.716826   0.000000
    21  C    3.519991   5.572592   3.744759   4.370130   1.458630
    22  H    3.585378   5.475888   3.646563   5.317697   2.126241
    23  H    4.429994   6.531984   4.526646   4.344185   2.089280
    24  H    3.875032   5.808679   4.351794   3.583969   2.105125
    25  C    2.853460   4.844462   2.516002   5.929837   1.449525
    26  H    3.927561   5.933232   3.596784   5.871984   2.072220
    27  H    2.915578   4.706243   2.281825   6.755831   2.141705
    28  H    2.768113   4.539609   2.370914   6.376331   2.095067
    29  C    3.751762   2.751931   4.623036   7.581803   5.687335
    30  H    4.110228   2.542401   4.799651   8.603973   6.312532
    31  C    4.848378   4.102033   5.808948   7.480094   6.454085
    32  H    5.823859   4.813125   6.735527   8.441913   7.526795
    33  C    5.054333   4.899648   6.111031   6.310869   6.128506
    34  C    6.432224   6.314202   7.500215   6.606259   7.280215
    35  C    6.982654   7.227398   8.065138   5.815655   7.379002
    36  H    7.200215   6.803327   8.243341   7.675336   8.248379
    37  H    8.066879   8.275493   9.149320   6.420125   8.401485
    38  Cl   5.792815   7.734934   6.312093   1.761254   3.729062
    39  Cl   8.096002   9.854847   8.775960   1.777680   6.260393
                   21         22         23         24         25
    21  C    0.000000
    22  H    1.101686   0.000000
    23  H    1.092174   1.781184   0.000000
    24  H    1.087782   1.781795   1.762460   0.000000
    25  C    2.411669   2.723336   2.629623   3.356027   0.000000
    26  H    2.617946   3.038805   2.360000   3.595404   1.092137
    27  H    2.743743   2.594750   3.053940   3.755283   1.102884
    28  H    3.357938   3.735048   3.610211   4.180582   1.091353
    29  C    6.438391   6.559308   7.462994   6.194720   6.495640
    30  H    7.123923   7.141407   8.156419   6.993911   6.942412
    31  C    7.078603   7.289663   8.079795   6.643823   7.435788
    32  H    8.146697   8.321823   9.155903   7.701945   8.475867
    33  C    6.607448   6.960960   7.539269   6.001470   7.295024
    34  C    7.637684   8.044073   8.508117   6.903781   8.522257
    35  C    7.585287   8.097671   8.344223   6.733911   8.712116
    36  H    8.637868   8.991224   9.536787   7.927111   9.446712
    37  H    8.551029   9.073865   9.269280   7.656522   9.749857
    38  Cl   3.574676   4.643087   3.280338   3.200995   4.666752
    39  Cl   5.663291   6.518372   5.433933   4.871212   7.398016
                   26         27         28         29         30
    26  H    0.000000
    27  H    1.772599   0.000000
    28  H    1.766933   1.784424   0.000000
    29  C    7.505965   6.651105   6.297202   0.000000
    30  H    7.997287   6.978576   6.670245   1.084873   0.000000
    31  C    8.381808   7.692181   7.287930   1.358440   2.123258
    32  H    9.438026   8.697908   8.293984   2.123068   2.451984
    33  C    8.128999   7.690981   7.250222   2.430191   3.417099
    34  C    9.286598   8.974086   8.509331   3.746976   4.633119
    35  C    9.351468   9.259433   8.782858   4.862507   5.833257
    36  H   10.252896   9.853361   9.389428   4.091224   4.798209
    37  H   10.354993  10.313817   9.828781   5.830252   6.752253
    38  Cl   4.412340   5.591855   5.081136   7.746060   8.670017
    39  Cl   7.181987   8.178742   7.934988   9.217026  10.257497
                   31         32         33         34         35
    31  C    0.000000
    32  H    1.084870   0.000000
    33  C    1.432509   2.172686   0.000000
    34  C    2.513266   2.743218   1.425220   0.000000
    35  C    3.755638   4.099900   2.432337   1.363003   0.000000
    36  H    2.740067   2.522324   2.166087   1.085237   2.123751
    37  H    4.637529   4.801842   3.416575   2.126958   1.084467
    38  Cl   7.928419   8.962867   6.971845   7.549879   6.988157
    39  Cl   9.010382   9.920665   7.756244   7.840781   6.855037
                   36         37         38         39
    36  H    0.000000
    37  H    2.450644   0.000000
    38  Cl   8.628860   7.728391   0.000000
    39  Cl   8.867618   7.249295   2.987078   0.000000
 Symmetry turned off by external request.
 Stoichiometry    C20H14BCl2NO
 Framework group  C1[X(C20H14BCl2NO)]
 Deg. of freedom   111
 Full point group                 C1      NOp   1
 Rotational constants (GHZ):           0.2549550           0.1898096           0.1116905
 General basis read from cards:  (5D, 7F)
 ======================================================================================================
                                       Pseudopotential Parameters
 ======================================================================================================
  Center     Atomic      Valence      Angular      Power
  Number     Number     Electrons     Momentum     of R      Exponent        Coefficient   SO-Coeffient
 ======================================================================================================
    1          6
                                   No pseudopotential on this center.
    2          6
                                   No pseudopotential on this center.
    3          6
                                   No pseudopotential on this center.
    4          6
                                   No pseudopotential on this center.
    5          6
                                   No pseudopotential on this center.
    6          6
                                   No pseudopotential on this center.
    7          1
                                   No pseudopotential on this center.
    8          1
                                   No pseudopotential on this center.
    9          6
                                   No pseudopotential on this center.
   10          8
                                   No pseudopotential on this center.
   11          6
                                   No pseudopotential on this center.
   12          6
                                   No pseudopotential on this center.
   13          6
                                   No pseudopotential on this center.
   14          6
                                   No pseudopotential on this center.
   15          6
                                   No pseudopotential on this center.
   16          6
                                   No pseudopotential on this center.
   17          1
                                   No pseudopotential on this center.
   18          1
                                   No pseudopotential on this center.
   19          5
                                   No pseudopotential on this center.
   20          7
                                   No pseudopotential on this center.
   21          6
                                   No pseudopotential on this center.
   22          1
                                   No pseudopotential on this center.
   23          1
                                   No pseudopotential on this center.
   24          1
                                   No pseudopotential on this center.
   25          6
                                   No pseudopotential on this center.
   26          1
                                   No pseudopotential on this center.
   27          1
                                   No pseudopotential on this center.
   28          1
                                   No pseudopotential on this center.
   29          6
                                   No pseudopotential on this center.
   30          1
                                   No pseudopotential on this center.
   31          6
                                   No pseudopotential on this center.
   32          1
                                   No pseudopotential on this center.
   33          6
                                   No pseudopotential on this center.
   34          6
                                   No pseudopotential on this center.
   35          6
                                   No pseudopotential on this center.
   36          1
                                   No pseudopotential on this center.
   37          1
                                   No pseudopotential on this center.
   38         17
                                   No pseudopotential on this center.
   39         17
                                   No pseudopotential on this center.
 ======================================================================================================
   664 basis functions,  1060 primitive gaussians,   689 cartesian basis functions
    94 alpha electrons       94 beta electrons
       nuclear repulsion energy      2377.5672986479 Hartrees.
 NAtoms=   39 NActive=   39 NUniq=   39 SFac= 1.00D+00 NAtFMM=   60 NAOKFM=F Big=F
 Integral buffers will be    131072 words long.
 Raffenetti 2 integral format.
 Two-electron integral symmetry is turned off.
 Nuclear repulsion after empirical dispersion term =     2377.5343872010 Hartrees.
 ------------------------------------------------------------------------------
 Polarizable Continuum Model (PCM)
 =================================
 Model                : PCM.
 Atomic radii         : UFF (Universal Force Field).
 Polarization charges : Total charges.
 Charge compensation  : None.
 Solution method      : On-the-fly selection.
 Cavity type          : Scaled VdW (van der Waals Surface) (Alpha=1.100).
 Cavity algorithm     : GePol (No added spheres)
                        Default sphere list used, NSphG=   39.
                        Lebedev-Laikov grids with approx.  5.0 points / Ang**2.
                        Smoothing algorithm: York/Karplus (Gamma=1.0000).
                        Polarization charges: spherical gaussians, with
                                              point-specific exponents (IZeta= 3).
                        Self-potential: point-specific (ISelfS= 7).
                        Self-field    : sphere-specific E.n sum rule (ISelfD= 2).
 Solvent              : Toluene, Eps=   2.374100 Eps(inf)=   2.238315
 ------------------------------------------------------------------------------
 One-electron integrals computed using PRISM.
   1 Symmetry operations used in ECPInt.
 ECPInt:  NShTT=   27495 NPrTT=  100642 LenC2=   23864 LenP2D=   57751.
 LDataN:  DoStor=T MaxTD1= 4 Len=   56
 Number of processors reduced to  72 by ecpmxn.
 NBasis=   664 RedAO= T EigKep=  1.03D-06  NBF=   664
 NBsUse=   651 1.00D-06 EigRej=  7.21D-07 NBFU=   651
 ExpMin= 3.15D-02 ExpMax= 1.06D+05 ExpMxC= 3.62D+03 IAcc=3 IRadAn=         5 AccDes= 0.00D+00
 Harris functional with IExCor= 4639 and IRadAn=       5 diagonalized for initial guess.
 HarFok:  IExCor= 4639 AccDes= 0.00D+00 IRadAn=         5 IDoV= 1 UseB2=F ITyADJ=14
 ICtDFT=  3500011 ScaDFX=  1.000000  1.000000  1.000000  1.000000
 FoFCou: FMM=F IPFlag=           0 FMFlag=      100000 FMFlg1=           0
         NFxFlg=           0 DoJE=T BraDBF=F KetDBF=T FulRan=T
         wScrn=  0.000000 ICntrl=       500 IOpCl=  0 I1Cent=   200000004 NGrid=           0
         NMat0=    1 NMatS0=      1 NMatT0=    0 NMatD0=    1 NMtDS0=    0 NMtDT0=    0
 Symmetry not used in FoFCou.
 Requested convergence on RMS density matrix=1.00D-08 within 300 cycles.
 Requested convergence on MAX density matrix=1.00D-06.
 Requested convergence on             energy=1.00D-06.
 No special actions if energy rises.
 Inv3:  Mode=1 IEnd=    24094668.
 Iteration    1 A*A^-1 deviation from unit magnitude is 4.33D-15 for   2828.
 Iteration    1 A*A^-1 deviation from orthogonality  is 2.21D-15 for   2815   2496.
 Iteration    1 A^-1*A deviation from unit magnitude is 4.55D-15 for   2828.
 Iteration    1 A^-1*A deviation from orthogonality  is 1.39D-14 for   1678   1633.
 Error on total polarization charges =  0.01343
 SCF Done:  E(RwB97XD) =  -1845.84110133     A.U. after   18 cycles
            NFock= 18  Conv=0.57D-08     -V/T= 2.0031

 **********************************************************************

            Population analysis using the SCF Density.

 **********************************************************************

 Alpha  occ. eigenvalues -- -101.71978-101.71721 -19.32136 -14.44503 -10.38663
 Alpha  occ. eigenvalues --  -10.36536 -10.33505 -10.32022 -10.31852 -10.31804
 Alpha  occ. eigenvalues --  -10.31496 -10.31049 -10.30923 -10.30763 -10.30716
 Alpha  occ. eigenvalues --  -10.30634 -10.30284 -10.30232 -10.30076 -10.30000
 Alpha  occ. eigenvalues --  -10.29903 -10.29611 -10.29482 -10.29453  -9.59031
 Alpha  occ. eigenvalues --   -9.58801  -7.33682  -7.33463  -7.33161  -7.32993
 Alpha  occ. eigenvalues --   -7.32940  -7.32734  -6.95209  -1.22572  -1.05202
 Alpha  occ. eigenvalues --   -1.01201  -0.98865  -0.96116  -0.94489  -0.92326
 Alpha  occ. eigenvalues --   -0.92080  -0.90325  -0.88224  -0.86644  -0.84063
 Alpha  occ. eigenvalues --   -0.81991  -0.81139  -0.76851  -0.76422  -0.74567
 Alpha  occ. eigenvalues --   -0.74026  -0.70368  -0.67262  -0.66865  -0.65276
 Alpha  occ. eigenvalues --   -0.62634  -0.61982  -0.60250  -0.58609  -0.58265
 Alpha  occ. eigenvalues --   -0.57556  -0.57220  -0.55789  -0.55276  -0.54479
 Alpha  occ. eigenvalues --   -0.53519  -0.53003  -0.52051  -0.51739  -0.50280
 Alpha  occ. eigenvalues --   -0.49868  -0.49394  -0.49123  -0.48929  -0.47957
 Alpha  occ. eigenvalues --   -0.47743  -0.46996  -0.46394  -0.45936  -0.45849
 Alpha  occ. eigenvalues --   -0.45393  -0.43093  -0.42559  -0.42406  -0.40890
 Alpha  occ. eigenvalues --   -0.40740  -0.40133  -0.38719  -0.38279  -0.35601
 Alpha  occ. eigenvalues --   -0.35171  -0.32364  -0.29143  -0.26169
 Alpha virt. eigenvalues --   -0.02093   0.00525   0.02448   0.03705   0.03985
 Alpha virt. eigenvalues --    0.04392   0.04719   0.05658   0.05778   0.06212
 Alpha virt. eigenvalues --    0.06720   0.07104   0.07246   0.07484   0.08067
 Alpha virt. eigenvalues --    0.08958   0.09162   0.09372   0.09469   0.10242
 Alpha virt. eigenvalues --    0.10600   0.10899   0.11193   0.11460   0.11638
 Alpha virt. eigenvalues --    0.11821   0.12790   0.13174   0.13738   0.14023
 Alpha virt. eigenvalues --    0.14189   0.14303   0.14985   0.15038   0.15377
 Alpha virt. eigenvalues --    0.15553   0.15896   0.16094   0.16555   0.16783
 Alpha virt. eigenvalues --    0.16921   0.17406   0.17636   0.17925   0.18008
 Alpha virt. eigenvalues --    0.18294   0.18439   0.18476   0.18703   0.19170
 Alpha virt. eigenvalues --    0.19314   0.19668   0.19938   0.20210   0.20508
 Alpha virt. eigenvalues --    0.20578   0.20970   0.21199   0.21340   0.21647
 Alpha virt. eigenvalues --    0.21846   0.21976   0.22159   0.22357   0.22834
 Alpha virt. eigenvalues --    0.23173   0.23432   0.23620   0.23983   0.24163
 Alpha virt. eigenvalues --    0.24455   0.24730   0.25176   0.25285   0.25452
 Alpha virt. eigenvalues --    0.25679   0.25995   0.26059   0.26227   0.27081
 Alpha virt. eigenvalues --    0.27262   0.27810   0.27840   0.28175   0.28441
 Alpha virt. eigenvalues --    0.28869   0.29448   0.29637   0.30062   0.30414
 Alpha virt. eigenvalues --    0.30698   0.30757   0.31113   0.31201   0.31597
 Alpha virt. eigenvalues --    0.32131   0.32331   0.32624   0.32897   0.33070
 Alpha virt. eigenvalues --    0.33273   0.33907   0.34114   0.34575   0.35194
 Alpha virt. eigenvalues --    0.35414   0.35558   0.35815   0.36161   0.36337
 Alpha virt. eigenvalues --    0.36541   0.36913   0.37388   0.37607   0.37737
 Alpha virt. eigenvalues --    0.37976   0.38059   0.38610   0.38736   0.38966
 Alpha virt. eigenvalues --    0.39404   0.39575   0.39919   0.40581   0.40681
 Alpha virt. eigenvalues --    0.41243   0.41366   0.41628   0.42288   0.42565
 Alpha virt. eigenvalues --    0.43144   0.43389   0.44705   0.44752   0.45436
 Alpha virt. eigenvalues --    0.45896   0.46128   0.46973   0.47500   0.47996
 Alpha virt. eigenvalues --    0.48745   0.49033   0.50425   0.51179   0.51713
 Alpha virt. eigenvalues --    0.52964   0.53526   0.53888   0.55341   0.56338
 Alpha virt. eigenvalues --    0.57061   0.57564   0.58161   0.58812   0.59477
 Alpha virt. eigenvalues --    0.59714   0.60086   0.60144   0.61124   0.61439
 Alpha virt. eigenvalues --    0.61915   0.61974   0.62417   0.63539   0.63747
 Alpha virt. eigenvalues --    0.63967   0.64868   0.65360   0.65805   0.66645
 Alpha virt. eigenvalues --    0.67069   0.67095   0.67422   0.67986   0.68392
 Alpha virt. eigenvalues --    0.69262   0.69582   0.69915   0.70390   0.70684
 Alpha virt. eigenvalues --    0.71018   0.71411   0.71514   0.72012   0.72262
 Alpha virt. eigenvalues --    0.72691   0.73226   0.73717   0.73760   0.74233
 Alpha virt. eigenvalues --    0.74954   0.75348   0.75587   0.76397   0.76990
 Alpha virt. eigenvalues --    0.77382   0.78140   0.78767   0.78872   0.79819
 Alpha virt. eigenvalues --    0.80819   0.81474   0.82264   0.82904   0.83628
 Alpha virt. eigenvalues --    0.84229   0.84474   0.84929   0.85683   0.86489
 Alpha virt. eigenvalues --    0.86698   0.87463   0.87749   0.87984   0.88185
 Alpha virt. eigenvalues --    0.89416   0.89875   0.91004   0.91213   0.91896
 Alpha virt. eigenvalues --    0.93366   0.93566   0.94241   0.94416   0.96520
 Alpha virt. eigenvalues --    0.97116   0.97331   0.97520   0.98285   0.98707
 Alpha virt. eigenvalues --    0.99614   0.99849   1.00166   1.00508   1.01067
 Alpha virt. eigenvalues --    1.01434   1.01582   1.02523   1.02616   1.02964
 Alpha virt. eigenvalues --    1.03325   1.03772   1.04190   1.04465   1.04701
 Alpha virt. eigenvalues --    1.05598   1.05827   1.06283   1.06870   1.07652
 Alpha virt. eigenvalues --    1.08077   1.08380   1.09398   1.09801   1.10280
 Alpha virt. eigenvalues --    1.11235   1.11964   1.12659   1.13197   1.14088
 Alpha virt. eigenvalues --    1.15304   1.15912   1.16643   1.17341   1.17690
 Alpha virt. eigenvalues --    1.18023   1.19441   1.20194   1.21117   1.21595
 Alpha virt. eigenvalues --    1.22096   1.22993   1.24110   1.24753   1.25209
 Alpha virt. eigenvalues --    1.25306   1.26678   1.27443   1.28497   1.32200
 Alpha virt. eigenvalues --    1.32953   1.34691   1.35389   1.37407   1.39538
 Alpha virt. eigenvalues --    1.40652   1.42395   1.43166   1.43631   1.46466
 Alpha virt. eigenvalues --    1.46643   1.49190   1.49675   1.51179   1.52566
 Alpha virt. eigenvalues --    1.53144   1.54311   1.54688   1.55620   1.56126
 Alpha virt. eigenvalues --    1.56462   1.56915   1.57257   1.57359   1.58089
 Alpha virt. eigenvalues --    1.58862   1.59228   1.60047   1.60922   1.62294
 Alpha virt. eigenvalues --    1.63482   1.64104   1.64728   1.66093   1.66214
 Alpha virt. eigenvalues --    1.66886   1.67591   1.68310   1.68690   1.69474
 Alpha virt. eigenvalues --    1.70203   1.71439   1.71845   1.72703   1.74335
 Alpha virt. eigenvalues --    1.74635   1.75104   1.76926   1.77811   1.78932
 Alpha virt. eigenvalues --    1.79836   1.80633   1.81114   1.81232   1.82125
 Alpha virt. eigenvalues --    1.83038   1.83834   1.84646   1.86369   1.86803
 Alpha virt. eigenvalues --    1.88262   1.88886   1.89695   1.91010   1.92532
 Alpha virt. eigenvalues --    1.92699   1.93994   1.94658   1.95509   1.96174
 Alpha virt. eigenvalues --    1.97816   1.98502   1.99283   1.99675   2.00423
 Alpha virt. eigenvalues --    2.01205   2.01546   2.02129   2.02728   2.02965
 Alpha virt. eigenvalues --    2.05150   2.06244   2.07182   2.07775   2.07903
 Alpha virt. eigenvalues --    2.09483   2.09667   2.10059   2.13610   2.13692
 Alpha virt. eigenvalues --    2.14190   2.15477   2.15668   2.16053   2.17435
 Alpha virt. eigenvalues --    2.18648   2.20845   2.22047   2.22091   2.23299
 Alpha virt. eigenvalues --    2.24134   2.25863   2.26590   2.27391   2.28234
 Alpha virt. eigenvalues --    2.30476   2.30920   2.33112   2.36453   2.38118
 Alpha virt. eigenvalues --    2.38408   2.39660   2.40021   2.41567   2.42272
 Alpha virt. eigenvalues --    2.43105   2.44564   2.45105   2.46215   2.47422
 Alpha virt. eigenvalues --    2.49061   2.50909   2.52879   2.53760   2.54048
 Alpha virt. eigenvalues --    2.55227   2.56669   2.57634   2.59771   2.61063
 Alpha virt. eigenvalues --    2.61467   2.62018   2.63841   2.66168   2.66448
 Alpha virt. eigenvalues --    2.67121   2.67521   2.68723   2.69491   2.71468
 Alpha virt. eigenvalues --    2.72232   2.73950   2.74445   2.74825   2.75510
 Alpha virt. eigenvalues --    2.77123   2.78384   2.79246   2.79591   2.80933
 Alpha virt. eigenvalues --    2.82257   2.82855   2.83348   2.84045   2.84398
 Alpha virt. eigenvalues --    2.85213   2.85954   2.86714   2.87537   2.87890
 Alpha virt. eigenvalues --    2.88378   2.88929   2.89633   2.90130   2.90745
 Alpha virt. eigenvalues --    2.92480   2.94120   2.94214   2.94726   2.95618
 Alpha virt. eigenvalues --    2.96555   2.97887   2.98880   3.00432   3.01271
 Alpha virt. eigenvalues --    3.01850   3.02594   3.03850   3.06267   3.07691
 Alpha virt. eigenvalues --    3.10628   3.14948   3.16920   3.19365   3.20615
 Alpha virt. eigenvalues --    3.21001   3.22287   3.25931   3.26914   3.29992
 Alpha virt. eigenvalues --    3.31285   3.33411   3.34030   3.35370   3.36910
 Alpha virt. eigenvalues --    3.37809   3.39782   3.43701   3.47261   3.50952
 Alpha virt. eigenvalues --    3.51225   3.52245   3.53543   3.55911   3.57179
 Alpha virt. eigenvalues --    3.59341   3.63497   3.64930   3.65135   3.66006
 Alpha virt. eigenvalues --    3.67912   3.72239   3.73543   3.79107   3.80913
 Alpha virt. eigenvalues --    3.84418   3.86833   3.90279   3.90497   3.92338
 Alpha virt. eigenvalues --    3.94546   3.96390   4.02364   4.12681   4.13970
 Alpha virt. eigenvalues --    4.18426   4.18604   4.19743   4.21507   4.31419
 Alpha virt. eigenvalues --    4.37113   4.39543   4.45418   4.47556   4.70360
 Alpha virt. eigenvalues --    4.93115   4.93736   4.95055   4.97335   4.99460
 Alpha virt. eigenvalues --    5.15005   5.16068   5.57425   6.16211   9.90797
 Alpha virt. eigenvalues --   10.02109  14.58244  23.59370  23.82595  23.92658
 Alpha virt. eigenvalues --   23.99747  24.03319  24.06796  24.08104  24.08481
 Alpha virt. eigenvalues --   24.10780  24.10986  24.12595  24.15551  24.17440
 Alpha virt. eigenvalues --   24.18362  24.20228  24.21459  24.31423  24.31985
 Alpha virt. eigenvalues --   24.32517  24.33936  26.08676  26.15811  26.20194
 Alpha virt. eigenvalues --   26.41350  26.53367  26.73648  35.75217  50.16809
 Alpha virt. eigenvalues --  215.99509 216.12078
          Condensed to atoms (all electrons):
               1          2          3          4          5          6
     1  C   16.437446  -4.533493  -5.464199   1.018282   0.659812  -0.511174
     2  C   -4.533493  17.545581   4.594579  -4.097142  -1.915802  -3.301131
     3  C   -5.464199   4.594579  11.895772  -0.687896  -1.769800   0.176471
     4  C    1.018282  -4.097142  -0.687896  12.765329   0.526303   0.890821
     5  C    0.659812  -1.915802  -1.769800   0.526303   9.003284   0.259710
     6  C   -0.511174  -3.301131   0.176471   0.890821   0.259710  13.326735
     7  H   -0.575671   0.801433   0.292880  -0.113796  -0.071874  -0.095948
     8  H    0.063801  -0.100111   0.305662   0.025113   0.045073   0.018016
     9  C    0.193830  -1.749600  -1.406277   0.749212   1.099719  -0.177853
    10  O   -0.295730  -0.004779  -0.035521   0.038234  -0.153624   0.060321
    11  C   -0.137370   0.177227   0.250737   0.450916  -0.543904   0.112195
    12  C    0.747092   0.877569   0.386732  -0.467200  -1.250626  -2.962002
    13  C    0.239376  -0.123665  -0.161164  -0.890475   0.149928  -0.877277
    14  C    0.158255   0.082766   0.085121   0.038155  -0.570287   0.116809
    15  C   -0.187523  -0.075813  -0.066388  -0.208680   0.574069   0.248845
    16  C   -0.096646   0.001164  -0.014037  -0.166736   0.156547   0.201740
    17  H    0.001135   0.000287  -0.000077  -0.000657   0.004892  -0.000326
    18  H   -0.002352  -0.000113  -0.000367  -0.001815   0.001833  -0.002162
    19  B    0.036312  -0.222039  -0.086466  -0.197880   0.022454   0.679256
    20  N   -0.038954  -0.028165  -0.013618   0.016935  -0.014573  -0.143922
    21  C   -0.050268  -0.022118  -0.004820  -0.001964   0.012759   0.102728
    22  H    0.004434   0.000019   0.000130   0.000145  -0.003416  -0.002888
    23  H    0.006284   0.014264   0.002303   0.000098  -0.000557  -0.015121
    24  H    0.040756   0.058954   0.009918  -0.003526  -0.001950  -0.140969
    25  C    0.035038   0.007213   0.002096  -0.000409  -0.037317  -0.101147
    26  H   -0.000023  -0.000680   0.000199  -0.000366  -0.001516  -0.000955
    27  H    0.002943   0.000788   0.000137  -0.000053  -0.000364  -0.005997
    28  H   -0.000638  -0.000153  -0.000054   0.000276   0.000401   0.000666
    29  C   -0.110515  -0.022193   0.024484   0.190583  -0.858377   0.323415
    30  H   -0.000624  -0.000870  -0.000108   0.001362  -0.005170   0.000764
    31  C   -0.072109   0.001171   0.112512   0.000833  -1.813163   0.527053
    32  H    0.000117   0.000236   0.001007   0.012731  -0.012668   0.004885
    33  C   -0.636003  -0.189884   0.158151   0.094384   0.507576   0.588455
    34  C   -0.060310  -0.584617  -1.213112  -2.353026   1.704015  -1.578651
    35  C   -1.101929  -1.260524  -0.888206  -1.489369   0.237330  -1.386213
    36  H    0.005413  -0.005129  -0.026056  -0.059235   0.020029  -0.020804
    37  H   -0.006993   0.003558   0.039070  -0.093693   0.016370  -0.023319
    38  Cl   0.207062   0.130896  -0.009738  -0.051397  -0.040047  -0.504858
    39  Cl  -0.244964   0.407572  -0.073916  -0.125737  -0.041320  -0.135318
               7          8          9         10         11         12
     1  C   -0.575671   0.063801   0.193830  -0.295730  -0.137370   0.747092
     2  C    0.801433  -0.100111  -1.749600  -0.004779   0.177227   0.877569
     3  C    0.292880   0.305662  -1.406277  -0.035521   0.250737   0.386732
     4  C   -0.113796   0.025113   0.749212   0.038234   0.450916  -0.467200
     5  C   -0.071874   0.045073   1.099719  -0.153624  -0.543904  -1.250626
     6  C   -0.095948   0.018016  -0.177853   0.060321   0.112195  -2.962002
     7  H    0.584121  -0.030670  -0.034860  -0.003301  -0.002591   0.014590
     8  H   -0.030670   0.462042   0.010768  -0.000066   0.004527  -0.006878
     9  C   -0.034860   0.010768   7.620156  -0.021832   0.230839  -0.546100
    10  O   -0.003301  -0.000066  -0.021832   8.622610  -0.210047   0.163843
    11  C   -0.002591   0.004527   0.230839  -0.210047   6.887915  -0.146453
    12  C    0.014590  -0.006878  -0.546100   0.163843  -0.146453  10.001562
    13  C   -0.003278   0.001736   0.517253  -0.029528  -0.045859  -0.080601
    14  C   -0.003227   0.001332   0.293220  -0.277113   0.129692  -0.480024
    15  C   -0.001484   0.001188  -1.253976   0.049970  -0.431753   1.046384
    16  C   -0.000979   0.000847  -0.976026   0.086867  -0.205785  -0.367305
    17  H   -0.000003   0.000003  -0.012773   0.000621   0.017663   0.030771
    18  H    0.000005   0.000004  -0.010633  -0.003168   0.020409   0.019700
    19  B   -0.078322   0.005863  -0.087397  -0.011696  -0.030496  -0.157622
    20  N    0.000021  -0.000094   0.004516  -0.004085   0.100098   0.024303
    21  C   -0.001120  -0.000008  -0.007717   0.010988  -0.007292  -0.172879
    22  H   -0.000078  -0.000002   0.005881   0.000923  -0.006447   0.040339
    23  H    0.000688  -0.000088  -0.002071   0.000490  -0.007268  -0.011311
    24  H    0.003786  -0.000180  -0.010015  -0.005397   0.042276   0.015125
    25  C   -0.000155  -0.000011  -0.008348  -0.017642  -0.066865   0.121874
    26  H   -0.000084   0.000012  -0.002631  -0.001524   0.000408  -0.005916
    27  H    0.000012  -0.000003   0.000909   0.000522   0.004897   0.000256
    28  H    0.000024  -0.000008   0.003387   0.000717  -0.010830   0.013623
    29  C   -0.000797   0.000710   0.685762   0.010201   0.197489  -0.867629
    30  H   -0.000015   0.000025  -0.005681  -0.000115   0.013843  -0.023359
    31  C    0.000036  -0.002068   0.325508  -0.012444   0.933788  -0.782717
    32  H    0.000069  -0.000012   0.021881   0.000266  -0.000238  -0.002425
    33  C   -0.003221   0.015805  -0.234863  -0.031375   0.359694   0.671019
    34  C    0.008167  -0.006879   0.339278   0.032243  -1.429348   0.037725
    35  C    0.057115  -0.018273   0.608441   0.024769  -0.735558   0.211420
    36  H   -0.000544   0.000773   0.021983   0.000516  -0.016024   0.000521
    37  H    0.003961  -0.001797  -0.003046  -0.000110  -0.005504  -0.000278
    38  Cl   0.011576  -0.001032  -0.047710  -0.018174  -0.024673   0.209654
    39  Cl   0.066498  -0.002843  -0.019401   0.001170  -0.001973   0.027382
              13         14         15         16         17         18
     1  C    0.239376   0.158255  -0.187523  -0.096646   0.001135  -0.002352
     2  C   -0.123665   0.082766  -0.075813   0.001164   0.000287  -0.000113
     3  C   -0.161164   0.085121  -0.066388  -0.014037  -0.000077  -0.000367
     4  C   -0.890475   0.038155  -0.208680  -0.166736  -0.000657  -0.001815
     5  C    0.149928  -0.570287   0.574069   0.156547   0.004892   0.001833
     6  C   -0.877277   0.116809   0.248845   0.201740  -0.000326  -0.002162
     7  H   -0.003278  -0.003227  -0.001484  -0.000979  -0.000003   0.000005
     8  H    0.001736   0.001332   0.001188   0.000847   0.000003   0.000004
     9  C    0.517253   0.293220  -1.253976  -0.976026  -0.012773  -0.010633
    10  O   -0.029528  -0.277113   0.049970   0.086867   0.000621  -0.003168
    11  C   -0.045859   0.129692  -0.431753  -0.205785   0.017663   0.020409
    12  C   -0.080601  -0.480024   1.046384  -0.367305   0.030771   0.019700
    13  C   13.109279   2.252909  -2.208368  -2.889741  -0.064376  -0.062792
    14  C    2.252909  14.070481  -5.620226  -1.629642  -0.022146  -0.259460
    15  C   -2.208368  -5.620226  12.776114   2.509916   0.398221   0.150154
    16  C   -2.889741  -1.629642   2.509916  11.530958  -0.012904   0.486061
    17  H   -0.064376  -0.022146   0.398221  -0.012904   0.457621  -0.007348
    18  H   -0.062792  -0.259460   0.150154   0.486061  -0.007348   0.491341
    19  B   -0.015554   0.049088   0.001324  -0.000201  -0.000091  -0.000188
    20  N    0.024545  -0.408538   0.015081  -0.434935  -0.003612  -0.031024
    21  C   -0.053130  -0.220421   0.044391   0.033963   0.000192  -0.001659
    22  H    0.012427   0.050155  -0.015590  -0.043234  -0.000683  -0.001384
    23  H   -0.000292  -0.009139   0.000937   0.004204   0.000001  -0.002518
    24  H    0.009737  -0.040390   0.014869   0.018024   0.000570   0.003327
    25  C    0.002920   0.253553  -0.388678  -0.336440   0.001908  -0.020176
    26  H   -0.006892   0.016071  -0.008140   0.039332   0.000034   0.007015
    27  H    0.003153   0.016225   0.007191  -0.005579   0.001054  -0.008408
    28  H    0.013117   0.020434  -0.025316  -0.042797  -0.000182  -0.008545
    29  C   -1.485674  -0.609183  -1.006598  -1.242923  -0.011525   0.021684
    30  H   -0.052675   0.020452   0.023781   0.012471   0.000086   0.000826
    31  C   -1.619110   0.423620  -1.432330  -0.265033  -0.005973   0.003497
    32  H   -0.043851   0.000849  -0.019013   0.002771   0.000671  -0.000168
    33  C    0.110991  -0.898420   0.833244  -0.182478   0.021993   0.008155
    34  C   -0.117871  -0.368367   0.266467  -0.076481  -0.001192   0.001511
    35  C    0.143338  -0.136660   0.012520  -0.039271  -0.000281  -0.000078
    36  H    0.015851  -0.002688   0.002998  -0.001343  -0.000008   0.000048
    37  H    0.000829  -0.000785  -0.001009  -0.000922   0.000026  -0.000014
    38  Cl   0.004874  -0.006602  -0.014507  -0.036703  -0.000011  -0.001273
    39  Cl  -0.000182  -0.001629  -0.000506  -0.001973   0.000005  -0.000037
              19         20         21         22         23         24
     1  C    0.036312  -0.038954  -0.050268   0.004434   0.006284   0.040756
     2  C   -0.222039  -0.028165  -0.022118   0.000019   0.014264   0.058954
     3  C   -0.086466  -0.013618  -0.004820   0.000130   0.002303   0.009918
     4  C   -0.197880   0.016935  -0.001964   0.000145   0.000098  -0.003526
     5  C    0.022454  -0.014573   0.012759  -0.003416  -0.000557  -0.001950
     6  C    0.679256  -0.143922   0.102728  -0.002888  -0.015121  -0.140969
     7  H   -0.078322   0.000021  -0.001120  -0.000078   0.000688   0.003786
     8  H    0.005863  -0.000094  -0.000008  -0.000002  -0.000088  -0.000180
     9  C   -0.087397   0.004516  -0.007717   0.005881  -0.002071  -0.010015
    10  O   -0.011696  -0.004085   0.010988   0.000923   0.000490  -0.005397
    11  C   -0.030496   0.100098  -0.007292  -0.006447  -0.007268   0.042276
    12  C   -0.157622   0.024303  -0.172879   0.040339  -0.011311   0.015125
    13  C   -0.015554   0.024545  -0.053130   0.012427  -0.000292   0.009737
    14  C    0.049088  -0.408538  -0.220421   0.050155  -0.009139  -0.040390
    15  C    0.001324   0.015081   0.044391  -0.015590   0.000937   0.014869
    16  C   -0.000201  -0.434935   0.033963  -0.043234   0.004204   0.018024
    17  H   -0.000091  -0.003612   0.000192  -0.000683   0.000001   0.000570
    18  H   -0.000188  -0.031024  -0.001659  -0.001384  -0.002518   0.003327
    19  B    4.850168   0.003898   0.044849   0.005661  -0.014204  -0.086432
    20  N    0.003898   7.454127   0.262396  -0.096289  -0.048388  -0.037864
    21  C    0.044849   0.262396   5.580898   0.419613   0.382929   0.321671
    22  H    0.005661  -0.096289   0.419613   0.597872  -0.052008  -0.070059
    23  H   -0.014204  -0.048388   0.382929  -0.052008   0.567972  -0.021759
    24  H   -0.086432  -0.037864   0.321671  -0.070059  -0.021759   0.676402
    25  C   -0.003349   0.399480  -0.206656  -0.013690   0.005037   0.002371
    26  H   -0.000483  -0.077716  -0.008416  -0.007824   0.001453   0.006801
    27  H   -0.001202  -0.041163  -0.009459   0.018157   0.003252  -0.003912
    28  H    0.000152  -0.054727   0.014328   0.000392  -0.002053  -0.002592
    29  C    0.012933  -0.009030  -0.000745   0.001115  -0.000875  -0.000647
    30  H    0.000216   0.000091   0.000255   0.000064   0.000015  -0.000206
    31  C    0.007325  -0.012927  -0.008138   0.000595  -0.000179   0.001423
    32  H   -0.000195  -0.000191  -0.000127  -0.000010   0.000001   0.000133
    33  C    0.018307   0.031820   0.012583  -0.001029   0.000094  -0.001328
    34  C   -0.031672   0.012764   0.003593  -0.000378  -0.000315   0.002864
    35  C   -0.122671   0.009992   0.000329  -0.000613   0.000908   0.008499
    36  H    0.000059   0.000051   0.000012  -0.000003  -0.000011   0.000015
    37  H   -0.004277  -0.000003   0.000032  -0.000005   0.000025   0.000052
    38  Cl   0.279691  -0.029016  -0.029423  -0.000702   0.035431  -0.017566
    39  Cl   0.345379   0.000265  -0.001003  -0.000005  -0.000943  -0.002174
              25         26         27         28         29         30
     1  C    0.035038  -0.000023   0.002943  -0.000638  -0.110515  -0.000624
     2  C    0.007213  -0.000680   0.000788  -0.000153  -0.022193  -0.000870
     3  C    0.002096   0.000199   0.000137  -0.000054   0.024484  -0.000108
     4  C   -0.000409  -0.000366  -0.000053   0.000276   0.190583   0.001362
     5  C   -0.037317  -0.001516  -0.000364   0.000401  -0.858377  -0.005170
     6  C   -0.101147  -0.000955  -0.005997   0.000666   0.323415   0.000764
     7  H   -0.000155  -0.000084   0.000012   0.000024  -0.000797  -0.000015
     8  H   -0.000011   0.000012  -0.000003  -0.000008   0.000710   0.000025
     9  C   -0.008348  -0.002631   0.000909   0.003387   0.685762  -0.005681
    10  O   -0.017642  -0.001524   0.000522   0.000717   0.010201  -0.000115
    11  C   -0.066865   0.000408   0.004897  -0.010830   0.197489   0.013843
    12  C    0.121874  -0.005916   0.000256   0.013623  -0.867629  -0.023359
    13  C    0.002920  -0.006892   0.003153   0.013117  -1.485674  -0.052675
    14  C    0.253553   0.016071   0.016225   0.020434  -0.609183   0.020452
    15  C   -0.388678  -0.008140   0.007191  -0.025316  -1.006598   0.023781
    16  C   -0.336440   0.039332  -0.005579  -0.042797  -1.242923   0.012471
    17  H    0.001908   0.000034   0.001054  -0.000182  -0.011525   0.000086
    18  H   -0.020176   0.007015  -0.008408  -0.008545   0.021684   0.000826
    19  B   -0.003349  -0.000483  -0.001202   0.000152   0.012933   0.000216
    20  N    0.399480  -0.077716  -0.041163  -0.054727  -0.009030   0.000091
    21  C   -0.206656  -0.008416  -0.009459   0.014328  -0.000745   0.000255
    22  H   -0.013690  -0.007824   0.018157   0.000392   0.001115   0.000064
    23  H    0.005037   0.001453   0.003252  -0.002053  -0.000875   0.000015
    24  H    0.002371   0.006801  -0.003912  -0.002592  -0.000647  -0.000206
    25  C    5.533609   0.417302   0.369958   0.436532  -0.040254  -0.000400
    26  H    0.417302   0.507482  -0.056973  -0.003898  -0.001643  -0.000032
    27  H    0.369958  -0.056973   0.607174  -0.047661  -0.002020  -0.000004
    28  H    0.436532  -0.003898  -0.047661   0.518283   0.002202   0.000006
    29  C   -0.040254  -0.001643  -0.002020   0.002202  10.443871   0.413572
    30  H   -0.000400  -0.000032  -0.000004   0.000006   0.413572   0.459593
    31  C    0.005216   0.000199  -0.000195   0.000154   3.493404   0.004633
    32  H    0.000008   0.000003   0.000002  -0.000003  -0.036680  -0.003576
    33  C   -0.019296  -0.000689  -0.000401   0.000362  -2.345861  -0.045285
    34  C   -0.005117  -0.000168  -0.000210   0.000105  -0.605945  -0.004108
    35  C   -0.000259  -0.000129   0.000039  -0.000009  -0.123677   0.002761
    36  H   -0.000039  -0.000000  -0.000003  -0.000002   0.004978  -0.000199
    37  H   -0.000013  -0.000004   0.000002   0.000003  -0.000395  -0.000063
    38  Cl   0.042570   0.002329   0.000729   0.000988  -0.001823  -0.000003
    39  Cl   0.000817   0.000079   0.000017   0.000057  -0.000283  -0.000003
              31         32         33         34         35         36
     1  C   -0.072109   0.000117  -0.636003  -0.060310  -1.101929   0.005413
     2  C    0.001171   0.000236  -0.189884  -0.584617  -1.260524  -0.005129
     3  C    0.112512   0.001007   0.158151  -1.213112  -0.888206  -0.026056
     4  C    0.000833   0.012731   0.094384  -2.353026  -1.489369  -0.059235
     5  C   -1.813163  -0.012668   0.507576   1.704015   0.237330   0.020029
     6  C    0.527053   0.004885   0.588455  -1.578651  -1.386213  -0.020804
     7  H    0.000036   0.000069  -0.003221   0.008167   0.057115  -0.000544
     8  H   -0.002068  -0.000012   0.015805  -0.006879  -0.018273   0.000773
     9  C    0.325508   0.021881  -0.234863   0.339278   0.608441   0.021983
    10  O   -0.012444   0.000266  -0.031375   0.032243   0.024769   0.000516
    11  C    0.933788  -0.000238   0.359694  -1.429348  -0.735558  -0.016024
    12  C   -0.782717  -0.002425   0.671019   0.037725   0.211420   0.000521
    13  C   -1.619110  -0.043851   0.110991  -0.117871   0.143338   0.015851
    14  C    0.423620   0.000849  -0.898420  -0.368367  -0.136660  -0.002688
    15  C   -1.432330  -0.019013   0.833244   0.266467   0.012520   0.002998
    16  C   -0.265033   0.002771  -0.182478  -0.076481  -0.039271  -0.001343
    17  H   -0.005973   0.000671   0.021993  -0.001192  -0.000281  -0.000008
    18  H    0.003497  -0.000168   0.008155   0.001511  -0.000078   0.000048
    19  B    0.007325  -0.000195   0.018307  -0.031672  -0.122671   0.000059
    20  N   -0.012927  -0.000191   0.031820   0.012764   0.009992   0.000051
    21  C   -0.008138  -0.000127   0.012583   0.003593   0.000329   0.000012
    22  H    0.000595  -0.000010  -0.001029  -0.000378  -0.000613  -0.000003
    23  H   -0.000179   0.000001   0.000094  -0.000315   0.000908  -0.000011
    24  H    0.001423   0.000133  -0.001328   0.002864   0.008499   0.000015
    25  C    0.005216   0.000008  -0.019296  -0.005117  -0.000259  -0.000039
    26  H    0.000199   0.000003  -0.000689  -0.000168  -0.000129  -0.000000
    27  H   -0.000195   0.000002  -0.000401  -0.000210   0.000039  -0.000003
    28  H    0.000154  -0.000003   0.000362   0.000105  -0.000009  -0.000002
    29  C    3.493404  -0.036680  -2.345861  -0.605945  -0.123677   0.004978
    30  H    0.004633  -0.003576  -0.045285  -0.004108   0.002761  -0.000199
    31  C   11.545143   0.427707  -1.953662  -2.702918  -0.612688   0.005020
    32  H    0.427707   0.451354  -0.037523   0.025943   0.004298   0.004956
    33  C   -1.953662  -0.037523  11.911856  -1.126681  -1.933287  -0.070763
    34  C   -2.702918   0.025943  -1.126681  11.951386   3.731247   0.481222
    35  C   -0.612688   0.004298  -1.933287   3.731247  10.772357  -0.011166
    36  H    0.005020   0.004956  -0.070763   0.481222  -0.011166   0.450650
    37  H   -0.004945   0.000040  -0.032590   0.018468   0.446435  -0.004334
    38  Cl   0.001260   0.000010   0.001594  -0.003234  -0.005736  -0.000036
    39  Cl  -0.000078   0.000002  -0.001942  -0.001112  -0.008939  -0.000014
              37         38         39
     1  C   -0.006993   0.207062  -0.244964
     2  C    0.003558   0.130896   0.407572
     3  C    0.039070  -0.009738  -0.073916
     4  C   -0.093693  -0.051397  -0.125737
     5  C    0.016370  -0.040047  -0.041320
     6  C   -0.023319  -0.504858  -0.135318
     7  H    0.003961   0.011576   0.066498
     8  H   -0.001797  -0.001032  -0.002843
     9  C   -0.003046  -0.047710  -0.019401
    10  O   -0.000110  -0.018174   0.001170
    11  C   -0.005504  -0.024673  -0.001973
    12  C   -0.000278   0.209654   0.027382
    13  C    0.000829   0.004874  -0.000182
    14  C   -0.000785  -0.006602  -0.001629
    15  C   -0.001009  -0.014507  -0.000506
    16  C   -0.000922  -0.036703  -0.001973
    17  H    0.000026  -0.000011   0.000005
    18  H   -0.000014  -0.001273  -0.000037
    19  B   -0.004277   0.279691   0.345379
    20  N   -0.000003  -0.029016   0.000265
    21  C    0.000032  -0.029423  -0.001003
    22  H   -0.000005  -0.000702  -0.000005
    23  H    0.000025   0.035431  -0.000943
    24  H    0.000052  -0.017566  -0.002174
    25  C   -0.000013   0.042570   0.000817
    26  H   -0.000004   0.002329   0.000079
    27  H    0.000002   0.000729   0.000017
    28  H    0.000003   0.000988   0.000057
    29  C   -0.000395  -0.001823  -0.000283
    30  H   -0.000063  -0.000003  -0.000003
    31  C   -0.004945   0.001260  -0.000078
    32  H    0.000040   0.000010   0.000002
    33  C   -0.032590   0.001594  -0.001942
    34  C    0.018468  -0.003234  -0.001112
    35  C    0.446435  -0.005736  -0.008939
    36  H   -0.004334  -0.000036  -0.000014
    37  H    0.458941  -0.000019  -0.000299
    38  Cl  -0.000019  16.932120  -0.090839
    39  Cl  -0.000299  -0.090839  16.880621
 Mulliken charges:
               1
     1  C    0.270101
     2  C   -0.467256
     3  C   -0.416143
     4  C    0.191339
     5  C    0.104253
     6  C    0.349149
     7  H    0.177035
     8  H    0.207723
     9  C   -0.113734
    10  O    0.031997
    11  C    0.131666
    12  C   -0.330162
    13  C    0.220092
    14  C   -0.514241
    15  C   -0.011767
    16  C   -0.014751
    17  H    0.206415
    18  H    0.210114
    19  B   -0.210497
    20  N    0.168450
    21  C   -0.441147
    22  H    0.158414
    23  H    0.162715
    24  H    0.209393
    25  C   -0.371241
    26  H    0.187983
    27  H    0.146189
    28  H    0.173260
    29  C   -0.441112
    30  H    0.187682
    31  C   -0.519420
    32  H    0.196739
    33  C    0.400497
    34  C   -0.345287
    35  C   -0.396263
    36  H    0.203304
    37  H    0.196604
    38  Cl   0.074340
    39  Cl   0.027568
 Sum of Mulliken charges =  -0.00000
 Mulliken charges with hydrogens summed into heavy atoms:
               1
     1  C    0.270101
     2  C   -0.290222
     3  C   -0.208420
     4  C    0.191339
     5  C    0.104253
     6  C    0.349149
     9  C   -0.113734
    10  O    0.031997
    11  C    0.131666
    12  C   -0.330162
    13  C    0.220092
    14  C   -0.514241
    15  C    0.194649
    16  C    0.195363
    19  B   -0.210497
    20  N    0.168450
    21  C    0.089374
    25  C    0.136191
    29  C   -0.253430
    31  C   -0.322681
    33  C    0.400497
    34  C   -0.141983
    35  C   -0.199659
    38  Cl   0.074340
    39  Cl   0.027568
 Electronic spatial extent (au):  <R**2>=          21856.6978
 Charge=             -0.0000 electrons
 Dipole moment (field-independent basis, Debye):
    X=             -0.2293    Y=              3.6735    Z=             -1.6714  Tot=              4.0424
 Quadrupole moment (field-independent basis, Debye-Ang):
   XX=           -135.7238   YY=           -136.0446   ZZ=           -154.1844
   XY=             -5.3243   XZ=             15.9496   YZ=             -7.7793
 Traceless Quadrupole moment (field-independent basis, Debye-Ang):
   XX=              6.2604   YY=              5.9397   ZZ=            -12.2001
   XY=             -5.3243   XZ=             15.9496   YZ=             -7.7793
 Octapole moment (field-independent basis, Debye-Ang**2):
  XXX=           1284.2905  YYY=          -1263.3021  ZZZ=            151.2305  XYY=            494.5940
  XXY=           -409.7324  XXZ=            -31.1633  XZZ=            462.8722  YZZ=           -444.1150
  YYZ=            -24.4214  XYZ=             54.3086
 Hexadecapole moment (field-independent basis, Debye-Ang**3):
 XXXX=         -12023.2919 YYYY=         -12534.3594 ZZZZ=          -3155.0883 XXXY=           3478.1653
 XXXZ=           -817.6699 YYYX=           3934.1061 YYYZ=           1044.3903 ZZZX=          -1251.0076
 ZZZY=           1598.3612 XXYY=          -4410.9829 XXZZ=          -2500.2818 YYZZ=          -2587.1578
 XXYZ=            292.4653 YYXZ=           -130.1912 ZZXY=           1096.0989
 N-N= 2.377534387201D+03 E-N=-9.094235995436D+03  KE= 1.840097487389D+03
 Breneman (CHELPG) radii used.
 Generate Potential Derived Charges using the Breneman model, NDens= 1.
 Grid spacing= 0.300 Box extension= 2.800
 NStep X,Y,Z=   51     47     43   Total possible points=      103071
 Number of Points to Fit=   21103

 **********************************************************************

            Electrostatic Properties Using The SCF Density.

 **********************************************************************

       Atomic Center    1 is at  -2.125657  1.608150  1.183284
       Atomic Center    2 is at  -0.912572  1.822768  1.902305
       Atomic Center    3 is at  -0.123931  2.924057  1.722299
       Atomic Center    4 is at  -0.506461  3.925026  0.799635
       Atomic Center    5 is at  -1.715266  3.766532  0.093582
       Atomic Center    6 is at  -2.508499  2.614846  0.295222
       Atomic Center    7 is at  -0.598852  1.065920  2.610911
       Atomic Center    8 is at   0.798708  3.036799  2.279952
       Atomic Center    9 is at  -2.134833  4.756959 -0.837965
       Atomic Center   10 is at  -3.684054  2.482618 -0.361626
       Atomic Center   11 is at  -3.369673  4.567565 -1.520952
       Atomic Center   12 is at  -4.133565  3.425804 -1.249840
       Atomic Center   13 is at  -3.808442  5.516905 -2.467922
       Atomic Center   14 is at  -5.359726  3.200325 -1.870255
       Atomic Center   15 is at  -5.026632  5.275902 -3.122473
       Atomic Center   16 is at  -5.773906  4.158536 -2.821227
       Atomic Center   17 is at  -5.388206  5.984127 -3.859854
       Atomic Center   18 is at  -6.719113  4.011979 -3.328308
       Atomic Center   19 is at  -2.887733  0.283754  1.387357
       Atomic Center   20 is at  -6.111000  2.052364 -1.567473
       Atomic Center   21 is at  -6.598453  1.963932 -0.195551
       Atomic Center   22 is at  -7.432168  2.661583 -0.016903
       Atomic Center   23 is at  -6.948936  0.947244 -0.004890
       Atomic Center   24 is at  -5.799770  2.180110  0.510595
       Atomic Center   25 is at  -7.121119  1.660025 -2.530205
       Atomic Center   26 is at  -7.450174  0.646403 -2.291340
       Atomic Center   27 is at  -8.010470  2.312208 -2.522144
       Atomic Center   28 is at  -6.700630  1.650362 -3.537254
       Atomic Center   29 is at  -2.986082  6.666500 -2.703440
       Atomic Center   30 is at  -3.320856  7.399941 -3.429347
       Atomic Center   31 is at  -1.816113  6.847003 -2.037143
       Atomic Center   32 is at  -1.209646  7.726506 -2.225864
       Atomic Center   33 is at  -1.355766  5.887351 -1.078378
       Atomic Center   34 is at  -0.135576  6.030834 -0.356021
       Atomic Center   35 is at   0.271000  5.093873  0.546519
       Atomic Center   36 is at   0.475209  6.909664 -0.535849
       Atomic Center   37 is at   1.202314  5.223311  1.086861
       Atomic Center   38 is at  -3.984162 -0.439420  0.213953
       Atomic Center   39 is at  -2.627226 -0.669470  2.865073
   21103 points will be used for fitting atomic charges
 Fitting point charges to electrostatic potential
 Charges from ESP fit, RMS=   0.00526 RRMS=   0.43363:
 ESP charges:
               1
     1  C   -0.320375
     2  C   -0.034042
     3  C   -0.310121
     4  C    0.242619
     5  C   -0.120206
     6  C    0.410385
     7  H    0.111345
     8  H    0.150486
     9  C    0.023962
    10  O   -0.305677
    11  C   -0.030744
    12  C    0.125032
    13  C    0.153711
    14  C    0.119123
    15  C   -0.326573
    16  C   -0.087212
    17  H    0.158093
    18  H    0.132803
    19  B    0.500231
    20  N   -0.183402
    21  C    0.025916
    22  H   -0.009394
    23  H    0.067740
    24  H    0.038969
    25  C   -0.195237
    26  H    0.119010
    27  H    0.070535
    28  H    0.070675
    29  C   -0.151704
    30  H    0.127655
    31  C   -0.260598
    32  H    0.146773
    33  C    0.148776
    34  C   -0.143881
    35  C   -0.259374
    36  H    0.129810
    37  H    0.148978
    38  Cl  -0.248044
    39  Cl  -0.236045
 Sum of ESP charges =   0.00000
 ESP charges with hydrogens summed into heavy atoms:
               1
     1  C   -0.320375
     2  C    0.077303
     3  C   -0.159635
     4  C    0.242619
     5  C   -0.120206
     6  C    0.410385
     9  C    0.023962
    10  O   -0.305677
    11  C   -0.030744
    12  C    0.125032
    13  C    0.153711
    14  C    0.119123
    15  C   -0.168480
    16  C    0.045591
    19  B    0.500231
    20  N   -0.183402
    21  C    0.123232
    25  C    0.064982
    29  C   -0.024049
    31  C   -0.113824
    33  C    0.148776
    34  C   -0.014071
    35  C   -0.110396
    38  Cl  -0.248044
    39  Cl  -0.236045
 Charge=   0.00000 Dipole=    -0.1843     3.9143    -1.7762 Tot=     4.3023
 -----------------------------------------------------------------

              Electrostatic Properties (Atomic Units)

 -----------------------------------------------------------------
    Center     Electric         -------- Electric Field --------
               Potential          X             Y             Z
 -----------------------------------------------------------------
    1 Atom    -14.769584
    2 Atom    -14.759163
    3 Atom    -14.768032
    4 Atom    -14.743463
    5 Atom    -14.745966
    6 Atom    -14.677596
    7 Atom     -1.099782
    8 Atom     -1.093674
    9 Atom    -14.746150
   10 Atom    -22.295623
   11 Atom    -14.749516
   12 Atom    -14.697554
   13 Atom    -14.753661
   14 Atom    -14.726400
   15 Atom    -14.765266
   16 Atom    -14.762371
   17 Atom     -1.093201
   18 Atom     -1.090518
   19 Atom    -11.360942
   20 Atom    -18.378919
   21 Atom    -14.752898
   22 Atom     -1.120425
   23 Atom     -1.117249
   24 Atom     -1.117734
   25 Atom    -14.745938
   26 Atom     -1.109647
   27 Atom     -1.112220
   28 Atom     -1.107628
   29 Atom    -14.761060
   30 Atom     -1.091460
   31 Atom    -14.760763
   32 Atom     -1.090305
   33 Atom    -14.751498
   34 Atom    -14.753402
   35 Atom    -14.758432
   36 Atom     -1.085463
   37 Atom     -1.088226
   38 Atom    -64.418325
   39 Atom    -64.415165
 -----------------------------------------------------------------
 Unable to Open any file for archive entry.
 1\1\GINC-IRENE6010\SP\RwB97XD\GenECP\C20H14B1Cl2N1O1\PENASFRA\11-Apr-2
 024\0\\# wb97xd/genecp scrf=(solvent=toluene,pcm) nosymm pop=(chelpg) 
 scfcyc=300\\cl_naphtoxanthene_chelpg\\0,1\C,0,-2.125657,1.60815,1.1832
 84\C,0,-0.912572,1.822768,1.902305\C,0,-0.123931,2.924057,1.722299\C,0
 ,-0.506461,3.925026,0.799635\C,0,-1.715266,3.766532,0.093582\C,0,-2.50
 8499,2.614846,0.295222\H,0,-0.598852,1.06592,2.610911\H,0,0.798708,3.0
 36799,2.279952\C,0,-2.134833,4.756959,-0.837965\O,0,-3.684054,2.482618
 ,-0.361626\C,0,-3.369673,4.567565,-1.520952\C,0,-4.133565,3.425804,-1.
 24984\C,0,-3.808442,5.516905,-2.467922\C,0,-5.359726,3.200325,-1.87025
 5\C,0,-5.026632,5.275902,-3.122473\C,0,-5.773906,4.158536,-2.821227\H,
 0,-5.388206,5.984127,-3.859854\H,0,-6.719113,4.011979,-3.328308\B,0,-2
 .887733,0.283754,1.387357\N,0,-6.111,2.052364,-1.567473\C,0,-6.598453,
 1.963932,-0.195551\H,0,-7.432168,2.661583,-0.016903\H,0,-6.948936,0.94
 7244,-0.00489\H,0,-5.79977,2.18011,0.510595\C,0,-7.121119,1.660025,-2.
 530205\H,0,-7.450174,0.646403,-2.29134\H,0,-8.01047,2.312208,-2.522144
 \H,0,-6.70063,1.650362,-3.537254\C,0,-2.986082,6.6665,-2.70344\H,0,-3.
 320856,7.399941,-3.429347\C,0,-1.816113,6.847003,-2.037143\H,0,-1.2096
 46,7.726506,-2.225864\C,0,-1.355766,5.887351,-1.078378\C,0,-0.135576,6
 .030834,-0.356021\C,0,0.271,5.093873,0.546519\H,0,0.475209,6.909664,-0
 .535849\H,0,1.202314,5.223311,1.086861\Cl,0,-3.984162,-0.43942,0.21395
 3\Cl,0,-2.627226,-0.66947,2.865073\\Version=AS64L-G16RevC.02\HF=-1845.
 8411013\RMSD=5.675e-09\Dipole=-0.090219,1.4452825,-0.6575702\Quadrupol
 e=4.6544833,4.4159842,-9.0704675,-3.9585109,11.8581473,-5.7837\PG=C01 
 [X(C20H14B1Cl2N1O1)]\\@
 The archive entry for this job was punched.


 CONTRAIWISE...CONTINUED TWEEDLEDEE, IF IT WAS SO, IT MIGHT BE,
 AND IF IT WERE SO, IT WOULD BE.....
 BUT AS IT ISN'T, IT AIN'T....
 THAT'S LOGIC.....
 ALICE THROUGH THE LOOKING GLASS
 Job cpu time:       0 days  2 hours 59 minutes  2.2 seconds.
 Elapsed time:       0 days  0 hours  1 minutes 47.3 seconds.
 File lengths (MBytes):  RWF=    366 Int=      0 D2E=      0 Chk=     27 Scr=      1
 Normal termination of Gaussian 16 at Thu Apr 11 15:37:46 2024.
