 Entering Gaussian System, Link 0=/ccc/products/gaussian-16-C.02/system/default/g16/g16
 Input=cl_quinoline_chelpg.gjf
 Output=cl_quinoline_chelpg.log
 Initial command:
 /ccc/products/gaussian-16-C.02/system/default/g16/l1.exe "/ccc/scratch/cont003/gen7343/penasfra/flp/b-n_flp/cl_quinoline/reac/Gau-404573.inp" -scrdir="/ccc/scratch/cont003/gen7343/penasfra/flp/b-n_flp/cl_quinoline/reac/"
 Entering Link 1 = /ccc/products/gaussian-16-C.02/system/default/g16/l1.exe PID=    404622.
  
 Copyright (c) 1988-2021, Gaussian, Inc.  All Rights Reserved.
  
 This is part of the Gaussian(R) 16 program.  It is based on
 the Gaussian(R) 09 system (copyright 2009, Gaussian, Inc.),
 the Gaussian(R) 03 system (copyright 2003, Gaussian, Inc.),
 the Gaussian(R) 98 system (copyright 1998, Gaussian, Inc.),
 the Gaussian(R) 94 system (copyright 1995, Gaussian, Inc.),
 the Gaussian 92(TM) system (copyright 1992, Gaussian, Inc.),
 the Gaussian 90(TM) system (copyright 1990, Gaussian, Inc.),
 the Gaussian 88(TM) system (copyright 1988, Gaussian, Inc.),
 the Gaussian 86(TM) system (copyright 1986, Carnegie Mellon
 University), and the Gaussian 82(TM) system (copyright 1983,
 Carnegie Mellon University). Gaussian is a federally registered
 trademark of Gaussian, Inc.
  
 This software contains proprietary and confidential information,
 including trade secrets, belonging to Gaussian, Inc.
  
 This software is provided under written license and may be
 used, copied, transmitted, or stored only in accord with that
 written license.
  
 The following legend is applicable only to US Government
 contracts under FAR:
  
                    RESTRICTED RIGHTS LEGEND
  
 Use, reproduction and disclosure by the US Government is
 subject to restrictions as set forth in subparagraphs (a)
 and (c) of the Commercial Computer Software - Restricted
 Rights clause in FAR 52.227-19.
  
 Gaussian, Inc.
 340 Quinnipiac St., Bldg. 40, Wallingford CT 06492
  
  
 ---------------------------------------------------------------
 Warning -- This program may not be used in any manner that
 competes with the business of Gaussian, Inc. or will provide
 assistance to any competitor of Gaussian, Inc.  The licensee
 of this program is prohibited from giving any competitor of
 Gaussian, Inc. access to this program.  By using this program,
 the user acknowledges that Gaussian, Inc. is engaged in the
 business of creating and licensing software in the field of
 computational chemistry and represents and warrants to the
 licensee that it is not a competitor of Gaussian, Inc. and that
 it will not use this program in any manner prohibited above.
 ---------------------------------------------------------------
  

 Cite this work as:
 Gaussian 16, Revision C.02,
 M. J. Frisch, G. W. Trucks, H. B. Schlegel, G. E. Scuseria, 
 M. A. Robb, J. R. Cheeseman, G. Scalmani, V. Barone, 
 G. A. Petersson, H. Nakatsuji, X. Li, M. Caricato, A. V. Marenich, 
 J. Bloino, B. G. Janesko, R. Gomperts, B. Mennucci, H. P. Hratchian, 
 J. V. Ortiz, A. F. Izmaylov, J. L. Sonnenberg, D. Williams-Young, 
 F. Ding, F. Lipparini, F. Egidi, J. Goings, B. Peng, A. Petrone, 
 T. Henderson, D. Ranasinghe, V. G. Zakrzewski, J. Gao, N. Rega, 
 G. Zheng, W. Liang, M. Hada, M. Ehara, K. Toyota, R. Fukuda, 
 J. Hasegawa, M. Ishida, T. Nakajima, Y. Honda, O. Kitao, H. Nakai, 
 T. Vreven, K. Throssell, J. A. Montgomery, Jr., J. E. Peralta, 
 F. Ogliaro, M. J. Bearpark, J. J. Heyd, E. N. Brothers, K. N. Kudin, 
 V. N. Staroverov, T. A. Keith, R. Kobayashi, J. Normand, 
 K. Raghavachari, A. P. Rendell, J. C. Burant, S. S. Iyengar, 
 J. Tomasi, M. Cossi, J. M. Millam, M. Klene, C. Adamo, R. Cammi, 
 J. W. Ochterski, R. L. Martin, K. Morokuma, O. Farkas, 
 J. B. Foresman, and D. J. Fox, Gaussian, Inc., Wallingford CT, 2019.
 
 ******************************************
 Gaussian 16:  AS64L-G16RevC.02  7-Dec-2021
                11-Apr-2024 
 ******************************************
 %nprocshared=128
 Will use up to  128 processors via shared memory.
 %mem=30GB
 %chk=cl_quinoline_chelpg.chk
 ----------------------------------------------------------------------
 # wb97xd/genecp scrf=(solvent=toluene,pcm) nosymm pop=(chelpg) scfcyc=
 300
 ----------------------------------------------------------------------
 1/38=1,172=1/1;
 2/12=2,15=1,17=6,18=5,40=1/2;
 3/5=7,11=2,16=1,17=8,25=1,30=1,70=2201,72=13,74=-58/1,2,3;
 4//1;
 5/5=2,7=300,38=5,53=13/2;
 6/7=2,8=2,9=2,10=2,15=8,20=3,28=1/1,2;
 99/5=1,9=1/99;
 -------------------
 cl_quinoline_chelpg
 -------------------
 Symbolic Z-matrix:
 Charge =  0 Multiplicity = 1
 C                    -4.00573   0.0399    0.27113 
 C                    -2.64629   0.06383   0.04735 
 C                    -1.99348   1.32497  -0.08566 
 C                    -2.74086   2.52133   0.05029 
 C                    -4.13071   2.44671   0.31509 
 C                    -4.74965   1.23137   0.41832 
 H                    -4.52425  -0.91016   0.35045 
 C                    -2.05232   3.74805  -0.10535 
 H                    -4.69565   3.36697   0.42176 
 H                    -5.81466   1.17447   0.61012 
 C                    -0.71542   3.73285  -0.38656 
 C                    -0.06545   2.48438  -0.51949 
 H                    -2.59535   4.68225  -0.00537 
 H                    -0.15229   4.64892  -0.51481 
 H                     0.99544   2.45402  -0.75418 
 N                    -0.66444   1.32799  -0.38132 
 B                    -1.83474  -1.26319  -0.0117 
 Cl                   -2.2828   -2.52456  -1.16202 
 Cl                   -0.55179  -1.63339   1.13161 
 
                          Input orientation:                          
 ---------------------------------------------------------------------
 Center     Atomic      Atomic             Coordinates (Angstroms)
 Number     Number       Type             X           Y           Z
 ---------------------------------------------------------------------
      1          6           0       -4.005726    0.039899    0.271132
      2          6           0       -2.646290    0.063834    0.047350
      3          6           0       -1.993476    1.324973   -0.085655
      4          6           0       -2.740858    2.521327    0.050290
      5          6           0       -4.130713    2.446709    0.315087
      6          6           0       -4.749652    1.231371    0.418320
      7          1           0       -4.524245   -0.910159    0.350452
      8          6           0       -2.052315    3.748051   -0.105345
      9          1           0       -4.695653    3.366968    0.421760
     10          1           0       -5.814662    1.174466    0.610120
     11          6           0       -0.715419    3.732849   -0.386559
     12          6           0       -0.065454    2.484378   -0.519485
     13          1           0       -2.595351    4.682248   -0.005368
     14          1           0       -0.152293    4.648921   -0.514813
     15          1           0        0.995437    2.454022   -0.754175
     16          7           0       -0.664444    1.327989   -0.381319
     17          5           0       -1.834737   -1.263186   -0.011695
     18         17           0       -2.282799   -2.524560   -1.162023
     19         17           0       -0.551785   -1.633389    1.131614
 ---------------------------------------------------------------------
                    Distance matrix (angstroms):
                    1          2          3          4          5
     1  C    0.000000
     2  C    1.377940   0.000000
     3  C    2.414097   1.426299   0.000000
     4  C    2.793948   2.459314   1.417153   0.000000
     5  C    2.410454   2.820157   2.446767   1.416821   0.000000
     6  C    1.412337   2.434110   2.803437   2.415509   1.367768
     7  H    1.085248   2.137112   3.404526   3.878874   3.380042
     8  C    4.208080   3.734913   2.423872   1.415332   2.487970
     9  H    3.401187   3.905223   3.424759   2.162018   1.085087
    10  H    2.162037   3.404232   3.886929   3.402310   2.131040
    11  C    4.989645   4.168718   2.742597   2.400214   3.716275
    12  C    4.703860   3.583441   2.291222   2.735653   4.150212
    13  H    4.859734   4.618996   3.411744   2.166529   2.730872
    14  H    6.058856   5.249673   3.823972   3.398039   4.622369
    15  H    5.647201   4.429178   3.264241   3.822512   5.236486
    16  N    3.639922   2.389468   1.361526   2.433482   3.708306
    17  B    2.547786   1.556627   2.594077   3.891971   4.375113
    18  Cl   3.405710   2.880016   4.007640   5.209654   5.505466
    19  Cl   3.933196   2.905709   3.508863   4.819021   5.488410
                    6          7          8          9         10
     6  C    0.000000
     7  H    2.154429   0.000000
     8  C    3.726061   5.293119   0.000000
     9  H    2.136282   4.281154   2.722187   0.000000
    10  H    1.083638   2.465414   4.614161   2.468750   0.000000
    11  C    4.814588   6.050443   1.366237   4.077930   5.791457
    12  C    4.938746   5.671022   2.390815   4.806626   6.003771
    13  H    4.090119   5.926403   1.085176   2.514690   4.800763
    14  H    5.803972   7.125028   2.142269   4.812764   6.737933
    15  H    5.989630   6.557805   3.374060   5.882584   7.062295
    16  N    4.163854   4.521378   2.803399   4.588357   5.247024
    17  B    3.860629   2.736646   5.016832   5.459950   4.708355
    18  Cl   4.763388   3.149278   6.365166   6.560513   5.412702
    19  Cl   5.132029   4.112629   5.722024   6.532925   5.987811
                   11         12         13         14         15
    11  C    0.000000
    12  C    1.413791   0.000000
    13  H    2.140283   3.390476   0.000000
    14  H    1.082935   2.166289   2.495832   0.000000
    15  H    2.167387   1.086964   4.291790   2.488405   0.000000
    16  N    2.405406   1.309624   3.888547   3.362842   2.040141
    17  B    5.133591   4.175218   5.993893   6.167394   4.730623
    18  Cl   6.497168   5.515336   7.305725   7.511110   5.974902
    19  Cl   5.579259   4.463032   6.734698   6.506745   4.759940
                   16         17         18         19
    16  N    0.000000
    17  B    2.867123   0.000000
    18  Cl   4.250965   1.764958   0.000000
    19  Cl   3.327374   1.757888   3.008549   0.000000
 Symmetry turned off by external request.
 Stoichiometry    C9H6BCl2N
 Framework group  C1[X(C9H6BCl2N)]
 Deg. of freedom    51
 Full point group                 C1      NOp   1
 Rotational constants (GHZ):           0.9840912           0.4627026           0.3618546
 General basis read from cards:  (5D, 7F)
 ======================================================================================================
                                       Pseudopotential Parameters
 ======================================================================================================
  Center     Atomic      Valence      Angular      Power
  Number     Number     Electrons     Momentum     of R      Exponent        Coefficient   SO-Coeffient
 ======================================================================================================
    1          6
                                   No pseudopotential on this center.
    2          6
                                   No pseudopotential on this center.
    3          6
                                   No pseudopotential on this center.
    4          6
                                   No pseudopotential on this center.
    5          6
                                   No pseudopotential on this center.
    6          6
                                   No pseudopotential on this center.
    7          1
                                   No pseudopotential on this center.
    8          6
                                   No pseudopotential on this center.
    9          1
                                   No pseudopotential on this center.
   10          1
                                   No pseudopotential on this center.
   11          6
                                   No pseudopotential on this center.
   12          6
                                   No pseudopotential on this center.
   13          1
                                   No pseudopotential on this center.
   14          1
                                   No pseudopotential on this center.
   15          1
                                   No pseudopotential on this center.
   16          7
                                   No pseudopotential on this center.
   17          5
                                   No pseudopotential on this center.
   18         17
                                   No pseudopotential on this center.
   19         17
                                   No pseudopotential on this center.
 ======================================================================================================
   344 basis functions,   556 primitive gaussians,   357 cartesian basis functions
    53 alpha electrons       53 beta electrons
       nuclear repulsion energy       876.3716797373 Hartrees.
 NAtoms=   19 NActive=   19 NUniq=   19 SFac= 1.00D+00 NAtFMM=   60 NAOKFM=F Big=F
 Integral buffers will be    131072 words long.
 Raffenetti 2 integral format.
 Two-electron integral symmetry is turned off.
 Nuclear repulsion after empirical dispersion term =      876.3601345268 Hartrees.
 ------------------------------------------------------------------------------
 Polarizable Continuum Model (PCM)
 =================================
 Model                : PCM.
 Atomic radii         : UFF (Universal Force Field).
 Polarization charges : Total charges.
 Charge compensation  : None.
 Solution method      : On-the-fly selection.
 Cavity type          : Scaled VdW (van der Waals Surface) (Alpha=1.100).
 Cavity algorithm     : GePol (No added spheres)
                        Default sphere list used, NSphG=   19.
                        Lebedev-Laikov grids with approx.  5.0 points / Ang**2.
                        Smoothing algorithm: York/Karplus (Gamma=1.0000).
                        Polarization charges: spherical gaussians, with
                                              point-specific exponents (IZeta= 3).
                        Self-potential: point-specific (ISelfS= 7).
                        Self-field    : sphere-specific E.n sum rule (ISelfD= 2).
 Solvent              : Toluene, Eps=   2.374100 Eps(inf)=   2.238315
 ------------------------------------------------------------------------------
 Spheres list:
 ISph  on   Nord     Re0    Alpha      Xe            Ye            Ze
    1   C      1    1.9255  1.100     -4.005726      0.039899      0.271132
    2   C      2    1.9255  1.100     -2.646290      0.063834      0.047350
    3   C      3    1.9255  1.100     -1.993476      1.324973     -0.085655
    4   C      4    1.9255  1.100     -2.740858      2.521327      0.050290
    5   C      5    1.9255  1.100     -4.130713      2.446709      0.315087
    6   C      6    1.9255  1.100     -4.749652      1.231371      0.418320
    7   H      7    1.4430  1.100     -4.524245     -0.910159      0.350452
    8   C      8    1.9255  1.100     -2.052315      3.748051     -0.105345
    9   H      9    1.4430  1.100     -4.695653      3.366968      0.421760
   10   H     10    1.4430  1.100     -5.814662      1.174466      0.610120
   11   C     11    1.9255  1.100     -0.715419      3.732849     -0.386559
   12   C     12    1.9255  1.100     -0.065454      2.484378     -0.519485
   13   H     13    1.4430  1.100     -2.595351      4.682248     -0.005368
   14   H     14    1.4430  1.100     -0.152293      4.648921     -0.514813
   15   H     15    1.4430  1.100      0.995437      2.454022     -0.754175
   16   N     16    1.8300  1.100     -0.664444      1.327989     -0.381319
   17   B     17    2.0415  1.100     -1.834737     -1.263186     -0.011695
   18  Cl     18    1.9735  1.100     -2.282799     -2.524560     -1.162023
   19  Cl     19    1.9735  1.100     -0.551785     -1.633389      1.131614
 ------------------------------------------------------------------------------
 One-electron integrals computed using PRISM.
   1 Symmetry operations used in ECPInt.
 ECPInt:  NShTT=    7503 NPrTT=   28004 LenC2=    7001 LenP2D=   18436.
 LDataN:  DoStor=T MaxTD1= 4 Len=   56
 NBasis=   344 RedAO= T EigKep=  1.70D-06  NBF=   344
 NBsUse=   342 1.00D-06 EigRej=  7.21D-07 NBFU=   342
 ExpMin= 3.15D-02 ExpMax= 1.06D+05 ExpMxC= 3.62D+03 IAcc=3 IRadAn=         5 AccDes= 0.00D+00
 Harris functional with IExCor= 4639 and IRadAn=       5 diagonalized for initial guess.
 HarFok:  IExCor= 4639 AccDes= 0.00D+00 IRadAn=         5 IDoV= 1 UseB2=F ITyADJ=14
 ICtDFT=  3500011 ScaDFX=  1.000000  1.000000  1.000000  1.000000
 FoFCou: FMM=F IPFlag=           0 FMFlag=      100000 FMFlg1=           0
         NFxFlg=           0 DoJE=T BraDBF=F KetDBF=T FulRan=T
         wScrn=  0.000000 ICntrl=       500 IOpCl=  0 I1Cent=   200000004 NGrid=           0
         NMat0=    1 NMatS0=      1 NMatT0=    0 NMatD0=    1 NMtDS0=    0 NMtDT0=    0
 Symmetry not used in FoFCou.
 Requested convergence on RMS density matrix=1.00D-08 within 300 cycles.
 Requested convergence on MAX density matrix=1.00D-06.
 Requested convergence on             energy=1.00D-06.
 No special actions if energy rises.
 Inv3:  Mode=1 IEnd=     9526572.
 Iteration    1 A*A^-1 deviation from unit magnitude is 4.55D-15 for   1776.
 Iteration    1 A*A^-1 deviation from orthogonality  is 3.03D-15 for   1773   1338.
 Iteration    1 A^-1*A deviation from unit magnitude is 4.44D-15 for   1776.
 Iteration    1 A^-1*A deviation from orthogonality  is 1.42D-15 for   1766   1748.
 Error on total polarization charges =  0.01052
 SCF Done:  E(RwB97XD) =  -1346.64219304     A.U. after   17 cycles
            NFock= 17  Conv=0.28D-08     -V/T= 2.0028

 **********************************************************************

            Population analysis using the SCF Density.

 **********************************************************************

 Alpha  occ. eigenvalues -- -101.72589-101.72235 -14.44229 -10.34177 -10.33629
 Alpha  occ. eigenvalues --  -10.31925 -10.31730 -10.31260 -10.31052 -10.30684
 Alpha  occ. eigenvalues --  -10.30547 -10.29799  -9.59632  -9.59287  -7.34283
 Alpha  occ. eigenvalues --   -7.33948  -7.33779  -7.33579  -7.33419  -7.33235
 Alpha  occ. eigenvalues --   -6.96074  -1.06668  -0.97390  -0.96244  -0.92670
 Alpha  occ. eigenvalues --   -0.92467  -0.86906  -0.85881  -0.75513  -0.74254
 Alpha  occ. eigenvalues --   -0.71834  -0.63668  -0.62972  -0.61487  -0.58746
 Alpha  occ. eigenvalues --   -0.55967  -0.53520  -0.52993  -0.52746  -0.51163
 Alpha  occ. eigenvalues --   -0.50558  -0.50126  -0.46422  -0.46038  -0.44604
 Alpha  occ. eigenvalues --   -0.44567  -0.41400  -0.40908  -0.40612  -0.39281
 Alpha  occ. eigenvalues --   -0.35329  -0.34115  -0.32271
 Alpha virt. eigenvalues --   -0.01548   0.01882   0.03000   0.03779   0.04618
 Alpha virt. eigenvalues --    0.05257   0.06528   0.06625   0.06809   0.07527
 Alpha virt. eigenvalues --    0.08424   0.08818   0.09293   0.10801   0.11670
 Alpha virt. eigenvalues --    0.12069   0.12842   0.13242   0.13802   0.14339
 Alpha virt. eigenvalues --    0.14562   0.14657   0.15458   0.15942   0.16642
 Alpha virt. eigenvalues --    0.16812   0.17260   0.17381   0.17746   0.18253
 Alpha virt. eigenvalues --    0.18413   0.18725   0.19759   0.19847   0.20109
 Alpha virt. eigenvalues --    0.20309   0.21496   0.21677   0.22089   0.22357
 Alpha virt. eigenvalues --    0.22553   0.23053   0.23283   0.23507   0.24304
 Alpha virt. eigenvalues --    0.24721   0.24836   0.26349   0.27111   0.27441
 Alpha virt. eigenvalues --    0.28244   0.28718   0.28784   0.28925   0.29594
 Alpha virt. eigenvalues --    0.30392   0.30639   0.31127   0.32078   0.32554
 Alpha virt. eigenvalues --    0.33166   0.33295   0.34086   0.34399   0.35303
 Alpha virt. eigenvalues --    0.35580   0.36281   0.36867   0.37031   0.37547
 Alpha virt. eigenvalues --    0.38028   0.39649   0.40554   0.41827   0.42719
 Alpha virt. eigenvalues --    0.43302   0.45068   0.46587   0.47934   0.51128
 Alpha virt. eigenvalues --    0.53393   0.55708   0.55819   0.56354   0.57650
 Alpha virt. eigenvalues --    0.58112   0.58698   0.59549   0.59739   0.60974
 Alpha virt. eigenvalues --    0.61700   0.62867   0.63240   0.63654   0.63999
 Alpha virt. eigenvalues --    0.65011   0.66400   0.66596   0.67392   0.67971
 Alpha virt. eigenvalues --    0.69002   0.69508   0.70643   0.70863   0.72684
 Alpha virt. eigenvalues --    0.73627   0.74970   0.77542   0.78371   0.80578
 Alpha virt. eigenvalues --    0.80904   0.82608   0.83219   0.84232   0.85841
 Alpha virt. eigenvalues --    0.87071   0.87777   0.89547   0.90280   0.91720
 Alpha virt. eigenvalues --    0.92646   0.93098   0.94902   0.95389   0.95802
 Alpha virt. eigenvalues --    0.96679   0.97163   0.98097   0.98787   0.99099
 Alpha virt. eigenvalues --    0.99919   1.00273   1.00798   1.00872   1.01861
 Alpha virt. eigenvalues --    1.02907   1.04824   1.05932   1.06285   1.07948
 Alpha virt. eigenvalues --    1.08163   1.10776   1.11336   1.13653   1.14869
 Alpha virt. eigenvalues --    1.15933   1.16787   1.17405   1.18707   1.20107
 Alpha virt. eigenvalues --    1.21825   1.23572   1.25530   1.27818   1.31158
 Alpha virt. eigenvalues --    1.35188   1.37066   1.39288   1.42919   1.47034
 Alpha virt. eigenvalues --    1.49430   1.51951   1.54533   1.57798   1.58439
 Alpha virt. eigenvalues --    1.59952   1.60501   1.62698   1.63930   1.64487
 Alpha virt. eigenvalues --    1.65951   1.66604   1.67668   1.70371   1.73190
 Alpha virt. eigenvalues --    1.76359   1.78307   1.80006   1.81219   1.81285
 Alpha virt. eigenvalues --    1.82084   1.86035   1.87353   1.89320   1.90923
 Alpha virt. eigenvalues --    1.96261   1.97627   1.98308   1.99574   2.00151
 Alpha virt. eigenvalues --    2.03265   2.03535   2.04576   2.06483   2.07753
 Alpha virt. eigenvalues --    2.10626   2.12384   2.15039   2.16522   2.21576
 Alpha virt. eigenvalues --    2.24805   2.27393   2.29674   2.30850   2.36147
 Alpha virt. eigenvalues --    2.37558   2.39000   2.41170   2.42761   2.44022
 Alpha virt. eigenvalues --    2.48219   2.50230   2.50984   2.53142   2.54097
 Alpha virt. eigenvalues --    2.56401   2.57089   2.60631   2.65315   2.67193
 Alpha virt. eigenvalues --    2.68693   2.72540   2.75357   2.77065   2.78116
 Alpha virt. eigenvalues --    2.80005   2.81032   2.82418   2.82486   2.82786
 Alpha virt. eigenvalues --    2.83706   2.84356   2.85847   2.88610   2.91688
 Alpha virt. eigenvalues --    2.92326   2.94751   2.96540   3.00465   3.01290
 Alpha virt. eigenvalues --    3.04931   3.07936   3.12058   3.12840   3.19197
 Alpha virt. eigenvalues --    3.29072   3.33840   3.42344   3.44467   3.47023
 Alpha virt. eigenvalues --    3.49248   3.58413   3.60718   3.62268   3.67398
 Alpha virt. eigenvalues --    3.76103   3.83385   3.96627   4.06004   4.08054
 Alpha virt. eigenvalues --    4.12518   4.15538   4.23351   4.27891   4.56201
 Alpha virt. eigenvalues --    4.62289   4.92914   5.34870   9.84664   9.98100
 Alpha virt. eigenvalues --   14.54800  23.70111  23.95718  24.04740  24.07717
 Alpha virt. eigenvalues --   24.13179  24.14771  24.23427  24.28973  24.31194
 Alpha virt. eigenvalues --   26.06532  26.08292  26.14222  26.26759  26.50326
 Alpha virt. eigenvalues --   26.62538  35.83034 215.92703 216.07414
          Condensed to atoms (all electrons):
               1          2          3          4          5          6
     1  C   16.921731  -1.725070 -12.911509   0.059999   3.520257  -1.327165
     2  C   -1.725070  16.843171  -5.097605  -2.266833   3.537044  -1.902546
     3  C  -12.911509  -5.097605  37.361851   1.845198 -11.081896   3.781998
     4  C    0.059999  -2.266833   1.845198  13.259978  -6.027681   0.591011
     5  C    3.520257   3.537044 -11.081896  -6.027681  17.396651  -3.105039
     6  C   -1.327165  -1.902546   3.781998   0.591011  -3.105039   8.143351
     7  H    0.377478  -0.224504   0.195187   0.076156  -0.175470   0.088523
     8  C   -0.107113  -2.276336  -5.473502  -1.984731   1.572565   0.061831
     9  H    0.026616   0.094897   0.003938  -0.112200   0.539400  -0.105155
    10  H   -0.114224   0.048606   0.068874  -0.001530  -0.094890   0.417319
    11  C    0.133752   0.396524   1.776811  -0.350642  -0.214683  -0.391303
    12  C    0.243056   0.323037  -2.613212  -0.086272   0.441955   0.111911
    13  H   -0.038763  -0.049473   0.101740  -0.028855  -0.052526   0.052018
    14  H   -0.005232  -0.023357   0.005386  -0.002152  -0.006617   0.004521
    15  H    0.024049   0.068023  -0.042358   0.006686  -0.015563   0.004267
    16  N    0.272594  -0.317911  -0.455626   0.094521   0.134387  -0.009751
    17  B    0.568347  -1.080949  -0.103268   0.315858  -0.068533   0.017793
    18  Cl   0.442640  -0.671618  -0.115160   0.072140  -0.011481   0.043373
    19  Cl   0.019827  -0.491394   0.213347   0.064930  -0.063655  -0.001919
               7          8          9         10         11         12
     1  C    0.377478  -0.107113   0.026616  -0.114224   0.133752   0.243056
     2  C   -0.224504  -2.276336   0.094897   0.048606   0.396524   0.323037
     3  C    0.195187  -5.473502   0.003938   0.068874   1.776811  -2.613212
     4  C    0.076156  -1.984731  -0.112200  -0.001530  -0.350642  -0.086272
     5  C   -0.175470   1.572565   0.539400  -0.094890  -0.214683   0.441955
     6  C    0.088523   0.061831  -0.105155   0.417319  -0.391303   0.111911
     7  H    0.523193  -0.036619   0.000781  -0.012580   0.006947  -0.014120
     8  C   -0.036619  13.326077  -0.114464   0.012591  -1.150796   0.576468
     9  H    0.000781  -0.114464   0.468536  -0.009528   0.031008  -0.005730
    10  H   -0.012580   0.012591  -0.009528   0.446644  -0.003401   0.003347
    11  C    0.006947  -1.150796   0.031008  -0.003401   7.470398  -1.043445
    12  C   -0.014120   0.576468  -0.005730   0.003347  -1.043445   7.352202
    13  H   -0.000407   0.357995   0.002566   0.001519  -0.047888   0.007521
    14  H    0.000152   0.033739  -0.000355  -0.000070   0.351734  -0.025703
    15  H   -0.000013  -0.077460   0.000083  -0.000000  -0.074378   0.484150
    16  N   -0.002458   0.228094  -0.005757   0.000078  -0.070329   0.244667
    17  B   -0.081467   0.305519  -0.018106  -0.002060  -0.012708  -0.093045
    18  Cl   0.021441   0.008477  -0.000600  -0.001916  -0.004761   0.011688
    19  Cl   0.002335   0.018340  -0.001186  -0.000831   0.010914  -0.004082
              13         14         15         16         17         18
     1  C   -0.038763  -0.005232   0.024049   0.272594   0.568347   0.442640
     2  C   -0.049473  -0.023357   0.068023  -0.317911  -1.080949  -0.671618
     3  C    0.101740   0.005386  -0.042358  -0.455626  -0.103268  -0.115160
     4  C   -0.028855  -0.002152   0.006686   0.094521   0.315858   0.072140
     5  C   -0.052526  -0.006617  -0.015563   0.134387  -0.068533  -0.011481
     6  C    0.052018   0.004521   0.004267  -0.009751   0.017793   0.043373
     7  H   -0.000407   0.000152  -0.000013  -0.002458  -0.081467   0.021441
     8  C    0.357995   0.033739  -0.077460   0.228094   0.305519   0.008477
     9  H    0.002566  -0.000355   0.000083  -0.005757  -0.018106  -0.000600
    10  H    0.001519  -0.000070  -0.000000   0.000078  -0.002060  -0.001916
    11  C   -0.047888   0.351734  -0.074378  -0.070329  -0.012708  -0.004761
    12  C    0.007521  -0.025703   0.484150   0.244667  -0.093045   0.011688
    13  H    0.440438  -0.003419  -0.000404   0.002396   0.002401  -0.000227
    14  H   -0.003419   0.427468  -0.000503   0.009257   0.000401  -0.000090
    15  H   -0.000404  -0.000503   0.474742  -0.096615  -0.012487   0.001143
    16  N    0.002396   0.009257  -0.096615   6.884078   0.010881  -0.005730
    17  B    0.002401   0.000401  -0.012487   0.010881   4.736331   0.461633
    18  Cl  -0.000227  -0.000090   0.001143  -0.005730   0.461633  16.818766
    19  Cl  -0.000042   0.000167   0.001697  -0.024065   0.483412  -0.137289
              19
     1  C    0.019827
     2  C   -0.491394
     3  C    0.213347
     4  C    0.064930
     5  C   -0.063655
     6  C   -0.001919
     7  H    0.002335
     8  C    0.018340
     9  H   -0.001186
    10  H   -0.000831
    11  C    0.010914
    12  C   -0.004082
    13  H   -0.000042
    14  H    0.000167
    15  H    0.001697
    16  N   -0.024065
    17  B    0.483412
    18  Cl  -0.137289
    19  Cl  16.841348
 Mulliken charges:
               1
     1  C   -0.381269
     2  C    0.816293
     3  C   -1.460193
     4  C    0.474419
     5  C   -0.224226
     6  C   -0.475039
     7  H    0.255445
     8  C    0.719325
     9  H    0.205257
    10  H    0.242052
    11  C   -0.813754
    12  C    0.085607
    13  H    0.253411
    14  H    0.234674
    15  H    0.254941
    16  N    0.107290
    17  B   -0.429951
    18  Cl   0.067571
    19  Cl   0.068147
 Sum of Mulliken charges =  -0.00000
 Mulliken charges with hydrogens summed into heavy atoms:
               1
     1  C   -0.125825
     2  C    0.816293
     3  C   -1.460193
     4  C    0.474419
     5  C   -0.018969
     6  C   -0.232987
     8  C    0.972736
    11  C   -0.579080
    12  C    0.340548
    16  N    0.107290
    17  B   -0.429951
    18  Cl   0.067571
    19  Cl   0.068147
 Electronic spatial extent (au):  <R**2>=           4671.5338
 Charge=             -0.0000 electrons
 Dipole moment (field-independent basis, Debye):
    X=             -2.1097    Y=              4.3249    Z=              0.2906  Tot=              4.8207
 Quadrupole moment (field-independent basis, Debye-Ang):
   XX=            -70.8254   YY=            -73.8152   ZZ=            -92.2336
   XY=             -6.2456   XZ=             -3.9046   YZ=             -1.2856
 Traceless Quadrupole moment (field-independent basis, Debye-Ang):
   XX=              8.1326   YY=              5.1429   ZZ=            -13.2755
   XY=             -6.2456   XZ=             -3.9046   YZ=             -1.2856
 Octapole moment (field-independent basis, Debye-Ang**2):
  XXX=            456.0463  YYY=            -61.8846  ZZZ=              6.7515  XYY=            154.5530
  XXY=            -19.4547  XXZ=             20.1166  XZZ=            195.1322  YZZ=            -57.2514
  YYZ=              0.0802  XYZ=             -3.1452
 Hexadecapole moment (field-independent basis, Debye-Ang**3):
 XXXX=          -2935.8527 YYYY=          -2354.9463 ZZZZ=           -341.6505 XXXY=            219.1078
 XXXZ=            -97.2155 YYYX=            197.2975 YYYZ=            -11.2835 ZZZX=              6.6553
 ZZZY=              3.5700 XXYY=           -887.4485 XXZZ=           -674.3153 YYZZ=           -529.9059
 XXYZ=             10.9298 YYXZ=            -20.8639 ZZXY=            134.9425
 N-N= 8.763601345268D+02 E-N=-4.931036686781D+03  KE= 1.342922789014D+03
 Breneman (CHELPG) radii used.
 Generate Potential Derived Charges using the Breneman model, NDens= 1.
 Grid spacing= 0.300 Box extension= 2.800
 NStep X,Y,Z=   43     44     28   Total possible points=       52976
 Number of Points to Fit=   13011

 **********************************************************************

            Electrostatic Properties Using The SCF Density.

 **********************************************************************

       Atomic Center    1 is at  -4.005726  0.039899  0.271132
       Atomic Center    2 is at  -2.646290  0.063834  0.047350
       Atomic Center    3 is at  -1.993476  1.324973 -0.085655
       Atomic Center    4 is at  -2.740858  2.521327  0.050290
       Atomic Center    5 is at  -4.130713  2.446709  0.315087
       Atomic Center    6 is at  -4.749652  1.231371  0.418320
       Atomic Center    7 is at  -4.524245 -0.910159  0.350452
       Atomic Center    8 is at  -2.052315  3.748051 -0.105345
       Atomic Center    9 is at  -4.695653  3.366968  0.421760
       Atomic Center   10 is at  -5.814662  1.174466  0.610120
       Atomic Center   11 is at  -0.715419  3.732849 -0.386559
       Atomic Center   12 is at  -0.065454  2.484378 -0.519485
       Atomic Center   13 is at  -2.595351  4.682248 -0.005368
       Atomic Center   14 is at  -0.152293  4.648921 -0.514813
       Atomic Center   15 is at   0.995437  2.454022 -0.754175
       Atomic Center   16 is at  -0.664444  1.327989 -0.381319
       Atomic Center   17 is at  -1.834737 -1.263186 -0.011695
       Atomic Center   18 is at  -2.282799 -2.524560 -1.162023
       Atomic Center   19 is at  -0.551785 -1.633389  1.131614
   13011 points will be used for fitting atomic charges
 Fitting point charges to electrostatic potential
 Charges from ESP fit, RMS=   0.00491 RRMS=   0.30315:
 ESP charges:
               1
     1  C   -0.104642
     2  C   -0.260408
     3  C    0.469691
     4  C    0.021657
     5  C   -0.223767
     6  C   -0.057066
     7  H    0.122023
     8  C   -0.057857
     9  H    0.145060
    10  H    0.107512
    11  C   -0.264252
    12  C    0.332842
    13  H    0.127447
    14  H    0.134452
    15  H    0.045639
    16  N   -0.608695
    17  B    0.478251
    18  Cl  -0.204125
    19  Cl  -0.203763
 Sum of ESP charges =  -0.00000
 ESP charges with hydrogens summed into heavy atoms:
               1
     1  C    0.017380
     2  C   -0.260408
     3  C    0.469691
     4  C    0.021657
     5  C   -0.078707
     6  C    0.050447
     8  C    0.069591
    11  C   -0.129800
    12  C    0.378482
    16  N   -0.608695
    17  B    0.478251
    18  Cl  -0.204125
    19  Cl  -0.203763
 Charge=  -0.00000 Dipole=    -2.2326     4.4916     0.2856 Tot=     5.0240
 -----------------------------------------------------------------

              Electrostatic Properties (Atomic Units)

 -----------------------------------------------------------------
    Center     Electric         -------- Electric Field --------
               Potential          X             Y             Z
 -----------------------------------------------------------------
    1 Atom    -14.749721
    2 Atom    -14.768711
    3 Atom    -14.723153
    4 Atom    -14.743143
    5 Atom    -14.748058
    6 Atom    -14.753445
    7 Atom     -1.087777
    8 Atom    -14.738907
    9 Atom     -1.077710
   10 Atom     -1.084852
   11 Atom    -14.751115
   12 Atom    -14.726803
   13 Atom     -1.070502
   14 Atom     -1.077098
   15 Atom     -1.094171
   16 Atom    -18.400387
   17 Atom    -11.354120
   18 Atom    -64.408952
   19 Atom    -64.415140
 -----------------------------------------------------------------
 Unable to Open any file for archive entry.
 1\1\GINC-IRENE4464\SP\RwB97XD\GenECP\C9H6B1Cl2N1\PENASFRA\11-Apr-2024\
 0\\# wb97xd/genecp scrf=(solvent=toluene,pcm) nosymm pop=(chelpg) scfc
 yc=300\\cl_quinoline_chelpg\\0,1\C,0,-4.005726,0.039899,0.271132\C,0,-
 2.64629,0.063834,0.04735\C,0,-1.993476,1.324973,-0.085655\C,0,-2.74085
 8,2.521327,0.05029\C,0,-4.130713,2.446709,0.315087\C,0,-4.749652,1.231
 371,0.41832\H,0,-4.524245,-0.910159,0.350452\C,0,-2.052315,3.748051,-0
 .105345\H,0,-4.695653,3.366968,0.42176\H,0,-5.814662,1.174466,0.61012\
 C,0,-0.715419,3.732849,-0.386559\C,0,-0.065454,2.484378,-0.519485\H,0,
 -2.595351,4.682248,-0.005368\H,0,-0.152293,4.648921,-0.514813\H,0,0.99
 5437,2.454022,-0.754175\N,0,-0.664444,1.327989,-0.381319\B,0,-1.834737
 ,-1.263186,-0.011695\Cl,0,-2.282799,-2.52456,-1.162023\Cl,0,-0.551785,
 -1.633389,1.131614\\Version=AS64L-G16RevC.02\HF=-1346.642193\RMSD=2.75
 3e-09\Dipole=-0.8300042,1.7015319,0.1143321\Quadrupole=6.0464256,3.823
 6178,-9.8700434,-4.6434831,-2.9029471,-0.9558475\PG=C01 [X(C9H6B1Cl2N1
 )]\\@
 The archive entry for this job was punched.


 A great many people think they are thinking when they
 are merely rearranging their prejudices.
                               -- William James
 Job cpu time:       0 days  0 hours 38 minutes 23.9 seconds.
 Elapsed time:       0 days  0 hours  0 minutes 24.2 seconds.
 File lengths (MBytes):  RWF=    119 Int=      0 D2E=      0 Chk=      9 Scr=      1
 Normal termination of Gaussian 16 at Thu Apr 11 15:22:26 2024.
