 Entering Gaussian System, Link 0=/ccc/products/gaussian-16-C.02/system/default/g16/g16
 Input=cyclo_biphenylene_chelpg.gjf
 Output=cyclo_biphenylene_chelpg.log
 Initial command:
 /ccc/products/gaussian-16-C.02/system/default/g16/l1.exe "/ccc/scratch/cont003/gen7343/penasfra/flp/b-n_flp/cyclo_biphenylene/reac/Gau-736208.inp" -scrdir="/ccc/scratch/cont003/gen7343/penasfra/flp/b-n_flp/cyclo_biphenylene/reac/"
 Entering Link 1 = /ccc/products/gaussian-16-C.02/system/default/g16/l1.exe PID=    736257.
  
 Copyright (c) 1988-2021, Gaussian, Inc.  All Rights Reserved.
  
 This is part of the Gaussian(R) 16 program.  It is based on
 the Gaussian(R) 09 system (copyright 2009, Gaussian, Inc.),
 the Gaussian(R) 03 system (copyright 2003, Gaussian, Inc.),
 the Gaussian(R) 98 system (copyright 1998, Gaussian, Inc.),
 the Gaussian(R) 94 system (copyright 1995, Gaussian, Inc.),
 the Gaussian 92(TM) system (copyright 1992, Gaussian, Inc.),
 the Gaussian 90(TM) system (copyright 1990, Gaussian, Inc.),
 the Gaussian 88(TM) system (copyright 1988, Gaussian, Inc.),
 the Gaussian 86(TM) system (copyright 1986, Carnegie Mellon
 University), and the Gaussian 82(TM) system (copyright 1983,
 Carnegie Mellon University). Gaussian is a federally registered
 trademark of Gaussian, Inc.
  
 This software contains proprietary and confidential information,
 including trade secrets, belonging to Gaussian, Inc.
  
 This software is provided under written license and may be
 used, copied, transmitted, or stored only in accord with that
 written license.
  
 The following legend is applicable only to US Government
 contracts under FAR:
  
                    RESTRICTED RIGHTS LEGEND
  
 Use, reproduction and disclosure by the US Government is
 subject to restrictions as set forth in subparagraphs (a)
 and (c) of the Commercial Computer Software - Restricted
 Rights clause in FAR 52.227-19.
  
 Gaussian, Inc.
 340 Quinnipiac St., Bldg. 40, Wallingford CT 06492
  
  
 ---------------------------------------------------------------
 Warning -- This program may not be used in any manner that
 competes with the business of Gaussian, Inc. or will provide
 assistance to any competitor of Gaussian, Inc.  The licensee
 of this program is prohibited from giving any competitor of
 Gaussian, Inc. access to this program.  By using this program,
 the user acknowledges that Gaussian, Inc. is engaged in the
 business of creating and licensing software in the field of
 computational chemistry and represents and warrants to the
 licensee that it is not a competitor of Gaussian, Inc. and that
 it will not use this program in any manner prohibited above.
 ---------------------------------------------------------------
  

 Cite this work as:
 Gaussian 16, Revision C.02,
 M. J. Frisch, G. W. Trucks, H. B. Schlegel, G. E. Scuseria, 
 M. A. Robb, J. R. Cheeseman, G. Scalmani, V. Barone, 
 G. A. Petersson, H. Nakatsuji, X. Li, M. Caricato, A. V. Marenich, 
 J. Bloino, B. G. Janesko, R. Gomperts, B. Mennucci, H. P. Hratchian, 
 J. V. Ortiz, A. F. Izmaylov, J. L. Sonnenberg, D. Williams-Young, 
 F. Ding, F. Lipparini, F. Egidi, J. Goings, B. Peng, A. Petrone, 
 T. Henderson, D. Ranasinghe, V. G. Zakrzewski, J. Gao, N. Rega, 
 G. Zheng, W. Liang, M. Hada, M. Ehara, K. Toyota, R. Fukuda, 
 J. Hasegawa, M. Ishida, T. Nakajima, Y. Honda, O. Kitao, H. Nakai, 
 T. Vreven, K. Throssell, J. A. Montgomery, Jr., J. E. Peralta, 
 F. Ogliaro, M. J. Bearpark, J. J. Heyd, E. N. Brothers, K. N. Kudin, 
 V. N. Staroverov, T. A. Keith, R. Kobayashi, J. Normand, 
 K. Raghavachari, A. P. Rendell, J. C. Burant, S. S. Iyengar, 
 J. Tomasi, M. Cossi, J. M. Millam, M. Klene, C. Adamo, R. Cammi, 
 J. W. Ochterski, R. L. Martin, K. Morokuma, O. Farkas, 
 J. B. Foresman, and D. J. Fox, Gaussian, Inc., Wallingford CT, 2019.
 
 ******************************************
 Gaussian 16:  AS64L-G16RevC.02  7-Dec-2021
                11-Apr-2024 
 ******************************************
 %nprocshared=128
 Will use up to  128 processors via shared memory.
 %mem=30GB
 %chk=cyclo_biphenylene_chelpg.chk
 ----------------------------------------------------------------------
 # wb97xd/genecp scrf=(solvent=toluene,pcm) nosymm pop=(chelpg) scfcyc=
 300
 ----------------------------------------------------------------------
 1/38=1,172=1/1;
 2/12=2,15=1,17=6,18=5,40=1/2;
 3/5=7,11=2,16=1,17=8,25=1,30=1,70=2201,72=13,74=-58/1,2,3;
 4//1;
 5/5=2,7=300,38=5,53=13/2;
 6/7=2,8=2,9=2,10=2,15=8,20=3,28=1/1,2;
 99/5=1,9=1/99;
 ------------------------
 cyclo_biphenylene_chelpg
 ------------------------
 Symbolic Z-matrix:
 Charge =  0 Multiplicity = 1
 C                     1.94333   2.44496  -0.38543 
 C                     1.69025   2.53505  -1.77637 
 C                     1.22207   3.95753  -1.59689 
 C                     1.42248   3.84958  -0.20372 
 C                     0.79112   5.10427  -2.2049 
 C                     1.1176    4.87164   0.67287 
 C                     0.53478   6.18028  -1.32768 
 H                     0.65174   5.20233  -3.27419 
 C                     0.67902   6.07125   0.0447 
 H                     0.19108   7.12478  -1.73563 
 H                     0.43104   6.93098   0.65452 
 C                     1.93632   1.50168  -2.63205 
 H                     1.75807   1.55273  -3.6997 
 C                     2.45132   0.32463  -2.0318 
 H                     2.65662  -0.5384   -2.65587 
 C                     2.70662   0.24909  -0.67636 
 C                     2.49022   1.33892   0.2235 
 H                     3.11401  -0.67717  -0.28179 
 B                     2.95687   1.26807   1.71943 
 N                     1.23129   4.7263    2.06158 
 C                     1.0973    5.9155    2.87898 
 H                     0.06719   6.30571   2.90752 
 H                     1.39321   5.66949   3.90085 
 H                     1.76213   6.70109   2.51646 
 C                     0.53705   3.57728   2.62542 
 H                     0.94354   3.35185   3.6146 
 H                    -0.54361   3.76232   2.7216 
 H                     0.67117   2.69871   1.99468 
 C                     3.81374   2.44557   2.30554 
 H                     4.5664    2.76849   1.57619 
 C                     2.51211   0.07828   2.64494 
 H                     2.48062  -0.87743   2.10817 
 C                     3.26908  -0.03433   3.9754 
 H                     2.71371  -0.65849   4.683 
 H                     4.22861  -0.53915   3.80714 
 C                     4.44251   2.19004   3.68414 
 H                     5.39555   1.66176   3.55628 
 H                     4.68405   3.13731   4.1774 
 C                     3.54702   1.34031   4.58903 
 H                     4.01707   1.22186   5.5706 
 H                     2.59457   1.86138   4.75989 
 H                     3.12335   3.306     2.35367 
 H                     1.44996   0.30196   2.85022 
 
                          Input orientation:                          
 ---------------------------------------------------------------------
 Center     Atomic      Atomic             Coordinates (Angstroms)
 Number     Number       Type             X           Y           Z
 ---------------------------------------------------------------------
      1          6           0        1.943331    2.444959   -0.385429
      2          6           0        1.690245    2.535054   -1.776373
      3          6           0        1.222071    3.957528   -1.596891
      4          6           0        1.422484    3.849583   -0.203715
      5          6           0        0.791117    5.104270   -2.204900
      6          6           0        1.117603    4.871635    0.672873
      7          6           0        0.534775    6.180277   -1.327684
      8          1           0        0.651740    5.202332   -3.274187
      9          6           0        0.679017    6.071249    0.044702
     10          1           0        0.191083    7.124784   -1.735626
     11          1           0        0.431043    6.930975    0.654523
     12          6           0        1.936324    1.501678   -2.632047
     13          1           0        1.758071    1.552725   -3.699702
     14          6           0        2.451318    0.324633   -2.031805
     15          1           0        2.656619   -0.538403   -2.655874
     16          6           0        2.706619    0.249091   -0.676361
     17          6           0        2.490218    1.338916    0.223498
     18          1           0        3.114009   -0.677166   -0.281791
     19          5           0        2.956871    1.268071    1.719434
     20          7           0        1.231287    4.726300    2.061581
     21          6           0        1.097301    5.915501    2.878975
     22          1           0        0.067189    6.305706    2.907516
     23          1           0        1.393206    5.669489    3.900846
     24          1           0        1.762131    6.701094    2.516458
     25          6           0        0.537047    3.577276    2.625416
     26          1           0        0.943543    3.351851    3.614600
     27          1           0       -0.543608    3.762322    2.721597
     28          1           0        0.671173    2.698706    1.994682
     29          6           0        3.813735    2.445570    2.305544
     30          1           0        4.566396    2.768489    1.576185
     31          6           0        2.512110    0.078275    2.644944
     32          1           0        2.480620   -0.877430    2.108174
     33          6           0        3.269080   -0.034333    3.975399
     34          1           0        2.713709   -0.658485    4.682995
     35          1           0        4.228614   -0.539154    3.807138
     36          6           0        4.442505    2.190041    3.684142
     37          1           0        5.395548    1.661758    3.556277
     38          1           0        4.684052    3.137311    4.177404
     39          6           0        3.547016    1.340309    4.589031
     40          1           0        4.017069    1.221863    5.570604
     41          1           0        2.594572    1.861384    4.759887
     42          1           0        3.123347    3.306000    2.353673
     43          1           0        1.449964    0.301963    2.850220
 ---------------------------------------------------------------------
                    Distance matrix (angstroms):
                    1          2          3          4          5
     1  C    0.000000
     2  C    1.416649   0.000000
     3  C    2.067782   1.508255   0.000000
     4  C    1.509063   2.067108   1.411650   0.000000
     5  C    3.421989   2.755529   1.367631   2.444914   0.000000
     6  C    2.773191   3.433123   2.449150   1.380561   2.905562
     7  C    4.101765   3.850206   2.342106   2.735593   1.411740
     8  H    4.197170   3.230528   2.165210   3.442641   1.082782
     9  C    3.864386   4.104092   2.730852   2.355898   2.451188
    10  H    5.176308   4.828537   3.333721   3.819691   2.159337
    11  H    4.846943   5.178703   3.812608   3.348806   3.412155
    12  C    2.436621   1.364038   2.759149   3.416648   3.804290
    13  H    3.437268   2.160733   3.239165   4.196439   3.972770
    14  C    2.732103   2.351688   3.859809   4.101912   5.062722
    15  H    3.816300   3.339691   4.836607   5.175963   5.960137
    16  C    2.342880   2.732887   4.099239   3.851745   5.438597
    17  C    1.375939   2.463775   3.432075   2.761524   4.791863
    18  H    3.335999   3.818277   5.175839   4.833095   6.520673
    19  B    2.615870   3.928136   4.608766   3.566097   5.899772
    20  N    3.420436   4.443207   3.738384   2.436546   4.305749
    21  C    4.839087   5.783707   4.886983   3.725150   5.157289
    22  H    5.410061   6.228238   5.209355   4.189167   5.301351
    23  H    5.391881   6.491820   5.760661   4.490026   6.161341
    24  H    5.154461   5.982429   4.973777   3.955479   5.077789
    25  C    3.510693   4.668173   4.294383   2.976933   5.072299
    26  H    4.221642   5.503391   5.253957   3.880290   6.079538
    27  H    4.192126   5.169915   4.669590   3.525703   5.277565
    28  H    2.710664   3.909750   3.845454   2.592670   4.841241
    29  C    3.277155   4.602093   4.922574   3.739748   6.045578
    30  H    3.291363   4.423390   4.760959   3.771073   5.831398
    31  C    3.886883   5.124380   5.891177   4.850248   7.193291
    32  H    4.188676   5.230626   6.219990   5.367414   7.565564
    33  C    5.188576   6.494409   7.153713   5.996642   8.410805
    34  H    5.992810   7.278022   7.935334   6.772730   9.184160
    35  H    5.630725   6.860734   7.646109   6.574368   8.933601
    36  C    4.782495   6.124638   6.433080   5.195194   7.517059
    37  H    5.297948   6.552028   7.017379   5.891465   8.138970
    38  H    5.367527   6.691267   6.782371   5.508118   7.730309
    39  C    5.342032   6.737461   7.107801   5.812100   8.241352
    40  H    6.424226   7.817714   8.165100   6.854163   9.270292
    41  H    5.219095   6.632822   6.832730   5.473945   7.891579
    42  H    3.104273   4.439079   4.432414   3.119079   5.427123
    43  H    3.912195   5.142936   5.761240   4.681120   7.003604
                    6          7          8          9         10
     6  C    0.000000
     7  C    2.460581   0.000000
     8  H    3.988192   2.181497   0.000000
     9  C    1.423387   1.384246   3.430858   0.000000
    10  H    3.425783   1.084728   2.505034   2.125461   0.000000
    11  H    2.170848   2.122134   4.297869   1.082821   2.409970
    12  C    4.790554   5.055194   3.969552   5.443049   5.955565
    13  H    5.526733   5.342018   3.837273   5.966739   6.112355
    14  C    5.456126   6.201410   5.345460   6.362117   7.172060
    15  H    6.535873   7.169866   6.112110   7.408881   8.102479
    16  C    5.070830   6.349811   5.958676   6.207143   7.397643
    17  C    3.816558   5.446898   5.526281   5.070246   6.526903
    18  H    5.973794   7.400734   7.041711   7.181705   8.457397
    19  B    4.178980   6.267475   6.762270   5.573497   7.340852
    20  N    1.400913   3.753171   5.388219   2.486301   4.610155
    21  C    2.440687   4.252355   6.210357   2.869202   4.855733
    22  H    2.855444   4.262779   6.306551   2.936836   4.716461
    23  H    3.336516   5.323094   7.228354   3.942249   5.944140
    24  H    2.676031   4.068794   6.083652   2.771176   4.552793
    25  C    2.413469   4.733140   6.120398   3.591677   5.632334
    26  H    3.315690   5.709050   7.138965   4.495472   6.589851
    27  H    2.861375   4.837984   6.281076   3.740551   5.631408
    28  H    2.582266   4.814359   5.833481   3.895707   5.808257
    29  C    3.977503   6.156294   6.980784   5.299378   7.165871
    30  H    4.139247   6.027165   6.691355   5.325916   7.006337
    31  C    5.367496   7.544936   8.046928   6.785074   8.615675
    32  H    6.080267   8.087191   8.323348   7.469125   9.167999
    33  C    6.293175   8.615131   9.318242   7.709535   9.661409
    34  H    7.015045   9.361874  10.095427   8.422770  10.399116
    35  H    6.984171   9.228304   9.793051   8.393628  10.283960
    36  C    5.226247   7.504048   8.477154   6.517142   8.473498
    37  H    6.076030   8.239976   9.038507   7.349859   9.216037
    38  H    5.292370   7.535392   8.720669   6.459684   8.429154
    39  C    5.805911   8.216228   9.226486   7.159479   9.204549
    40  H    6.761324   9.181428  10.266445   8.074325  10.142171
    41  H    5.286467   7.743005   8.915317   6.604944   8.698956
    42  H    3.049477   5.339903   6.432552   4.353470   6.316934
    43  H    5.072791   7.269596   7.884107   6.461420   8.316589
                   11         12         13         14         15
    11  H    0.000000
    12  C    6.522628   0.000000
    13  H    7.045981   1.083636   0.000000
    14  C    7.412262   1.418078   2.184189   0.000000
    15  H    8.467793   2.163637   2.503953   1.084639   0.000000
    16  C    7.183110   2.446842   3.426339   1.381345   2.130990
    17  C    5.974706   2.913319   3.996655   2.473191   3.441337
    18  H    8.121502   3.414382   4.300360   2.122571   2.421721
    19  B    6.291449   4.475654   5.557444   3.900955   4.743081
    20  N    2.735104   5.738067   6.598595   6.133429   7.211314
    21  C    2.534418   7.110356   7.921453   7.563526   8.644010
    22  H    2.366290   7.566975   8.312956   8.115060   9.192295
    23  H    3.613270   7.768160   8.651543   8.055025   9.117276
    24  H    2.300314   7.319247   8.071330   7.862629   8.942228
    25  C    3.891395   5.822972   6.752542   5.994483   7.023064
    26  H    4.672777   6.590095   7.576234   6.581742   7.575457
    27  H    3.906802   6.318392   7.170295   6.586510   7.593081
    28  H    4.445873   4.943693   5.909368   5.001773   6.004044
    29  C    5.855539   5.366135   6.409829   5.016687   5.904124
    30  H    5.939436   5.121651   6.099160   4.843922   5.700272
    31  C    7.433177   5.495838   6.557218   4.683628   5.338525
    32  H    8.202747   5.331614   6.337125   4.311060   4.779338
    33  C    8.221812   6.913314   7.981797   6.073227   6.678546
    34  H    8.890391   7.666842   8.721944   6.791459   7.340073
    35  H    8.953399   7.133211   8.175096   6.164265   6.651443
    36  C    6.909911   6.830010   7.882481   6.333768   7.129488
    37  H    7.799432   7.091348   8.117411   6.456241   7.136754
    38  H    6.700049   7.522894   8.551086   7.172903   8.019666
    39  C    7.513001   7.400293   8.482248   6.787313   7.537308
    40  H    8.343944   8.467070   9.547309   7.813656   8.521989
    41  H    6.872818   7.429897   8.506448   6.964855   7.794635
    42  H    4.824526   5.433416   6.448356   5.345333   6.331890
    43  H    7.057130   5.633038   6.675389   4.983713   5.699062
                   16         17         18         19         20
    16  C    0.000000
    17  C    1.429788   0.000000
    18  H    1.086096   2.170027   0.000000
    19  B    2.615488   1.568633   2.795271   0.000000
    20  N    5.451452   4.054359   6.183323   3.879955   0.000000
    21  C    6.880299   5.471463   7.584248   5.138204   1.449236
    22  H    7.516206   6.143617   8.259255   5.927864   2.136645
    23  H    7.215025   5.786207   7.793308   5.155200   2.073335
    24  H    7.260475   5.877136   8.006028   5.619643   2.094879
    25  C    5.165810   3.820254   5.761325   3.465369   1.456068
    26  H    5.581031   4.235999   6.010471   3.462266   2.093747
    27  H    5.869658   4.617087   6.489033   4.413499   2.124883
    28  H    4.156696   2.880112   4.748293   2.710515   2.104600
    29  C    3.865486   2.703941   4.115264   1.569791   3.454024
    30  H    3.857473   2.860761   4.175409   2.205073   3.897638
    31  C    3.331378   2.730036   3.082004   1.571622   4.856435
    32  H    3.012268   2.909344   2.480568   2.231840   5.741498
    33  C    4.694205   4.070528   4.308242   2.623568   5.520772
    34  H    5.435664   4.891490   4.980933   3.543083   6.169708
    35  H    4.799954   4.403594   4.240369   3.040049   6.305231
    36  C    5.078836   4.063483   5.070937   2.630060   4.401958
    37  H    5.209721   4.433124   5.040511   3.078332   5.382063
    38  H    5.984237   4.866262   6.074511   3.538196   4.350078
    39  C    5.442552   4.491626   5.289859   2.930542   4.818251
    40  H    6.456635   5.562061   6.218710   3.994705   5.688137
    41  H    5.671405   4.567569   5.668560   3.118916   4.164990
    42  H    4.324287   2.967814   4.776125   2.140824   2.383791
    43  H    3.744162   3.009496   3.679298   2.117265   4.499392
                   21         22         23         24         25
    21  C    0.000000
    22  H    1.101910   0.000000
    23  H    1.091926   1.774767   0.000000
    24  H    1.091134   1.783840   1.765459   0.000000
    25  C    2.417741   2.782926   2.595590   3.357222   0.000000
    26  H    2.671533   3.161206   2.378146   3.618485   1.092950
    27  H    2.711739   2.622297   2.962965   3.740975   1.100594
    28  H    3.363232   3.769418   3.602825   4.181094   1.089817
    29  C    4.443901   5.412913   4.335620   4.728958   3.481345
    30  H    4.861642   5.875986   4.887636   4.920711   4.241542
    31  C    6.010795   6.695333   5.838742   6.666386   4.017992
    32  H    6.975071   7.619779   6.874467   7.623447   4.887681
    33  C    6.428009   7.182519   6.004835   7.054458   4.725482
    34  H    7.006037   7.658743   6.511431   7.730639   5.187790
    35  H    7.233891   8.060948   6.826095   7.756970   5.654125
    36  C    5.071266   6.056834   4.631603   5.375639   4.277607
    37  H    6.085063   7.097785   5.674449   6.299036   5.304785
    38  H    4.719008   5.741669   4.161499   4.898664   4.449706
    39  C    5.464227   6.292206   4.884086   6.018255   4.233169
    40  H    6.148183   6.966997   5.427166   6.665923   5.131535
    41  H    4.713334   5.437917   4.084470   5.398956   3.425443
    42  H    3.345191   4.317995   3.312584   3.661430   2.614648
    43  H    5.624678   6.161191   5.469677   6.415429   3.407584
                   26         27         28         29         30
    26  H    0.000000
    27  H    1.782571   0.000000
    28  H    1.767744   1.770700   0.000000
    29  C    3.282221   4.570927   3.168029   0.000000
    30  H    4.197679   5.330273   3.918261   1.096695   0.000000
    31  C    3.757251   4.787013   3.267805   2.722775   3.549590
    32  H    4.745392   5.572212   4.009455   3.585872   4.233934
    33  C    4.123656   5.524780   4.259327   3.038912   3.910891
    34  H    4.511956   5.831015   4.761272   4.061710   4.982857
    35  H    5.095948   6.515765   5.140440   3.366821   4.003967
    36  C    3.687462   5.316003   4.163647   1.536613   2.189391
    37  H    4.762370   6.354733   5.082672   2.163522   2.415183
    38  H    3.788692   5.462457   4.589101   2.177112   2.629869
    39  C    3.431310   5.107510   4.104432   2.550893   3.486556
    40  H    4.220114   5.947314   5.115008   3.492767   4.318471
    41  H    2.501814   4.197185   3.470869   2.802041   3.853166
    42  H    2.518647   3.713510   2.551634   1.104215   1.725050
    43  H    3.184738   3.995617   2.661360   3.237149   4.173615
                   31         32         33         34         35
    31  C    0.000000
    32  H    1.096579   0.000000
    33  C    1.534860   2.195225   0.000000
    34  H    2.176490   2.594604   1.094849   0.000000
    35  H    2.162938   2.460974   1.097206   1.753939   0.000000
    36  C    3.043996   3.967625   2.531718   3.478584   2.740325
    37  H    3.413526   4.128109   2.752136   3.720925   2.503733
    38  H    4.052588   5.025432   3.478833   4.306500   3.723025
    39  C    2.538353   3.494312   1.530828   2.167581   2.146698
    40  H    3.483128   4.330835   2.163838   2.454039   2.501149
    41  H    2.767537   3.813878   2.159659   2.523855   3.056208
    42  H    3.297978   4.239629   3.716054   4.616350   4.256687
    43  H    1.104685   1.733162   2.165250   2.424577   3.056806
                   36         37         38         39         40
    36  C    0.000000
    37  H    1.097143   0.000000
    38  H    1.094976   1.751937   0.000000
    39  C    1.530611   2.141724   2.165988   0.000000
    40  H    2.162661   2.480166   2.460653   1.094744   0.000000
    41  H    2.163354   3.055159   2.516586   1.099027   1.757768
    42  H    2.180754   3.051669   2.406294   3.006703   3.935862
    43  H    3.635322   4.232634   4.501104   2.915348   3.851848
                   41         42         43
    41  H    0.000000
    42  H    2.855938   0.000000
    43  H    2.718225   3.474336   0.000000
 Symmetry turned off by external request.
 Stoichiometry    C19H22BN
 Framework group  C1[X(C19H22BN)]
 Deg. of freedom   123
 Full point group                 C1      NOp   1
 Rotational constants (GHZ):           0.4219570           0.2733838           0.1794870
 General basis read from cards:  (5D, 7F)
 ======================================================================================================
                                       Pseudopotential Parameters
 ======================================================================================================
  Center     Atomic      Valence      Angular      Power
  Number     Number     Electrons     Momentum     of R      Exponent        Coefficient   SO-Coeffient
 ======================================================================================================
    1          6
                                   No pseudopotential on this center.
    2          6
                                   No pseudopotential on this center.
    3          6
                                   No pseudopotential on this center.
    4          6
                                   No pseudopotential on this center.
    5          6
                                   No pseudopotential on this center.
    6          6
                                   No pseudopotential on this center.
    7          6
                                   No pseudopotential on this center.
    8          1
                                   No pseudopotential on this center.
    9          6
                                   No pseudopotential on this center.
   10          1
                                   No pseudopotential on this center.
   11          1
                                   No pseudopotential on this center.
   12          6
                                   No pseudopotential on this center.
   13          1
                                   No pseudopotential on this center.
   14          6
                                   No pseudopotential on this center.
   15          1
                                   No pseudopotential on this center.
   16          6
                                   No pseudopotential on this center.
   17          6
                                   No pseudopotential on this center.
   18          1
                                   No pseudopotential on this center.
   19          5
                                   No pseudopotential on this center.
   20          7
                                   No pseudopotential on this center.
   21          6
                                   No pseudopotential on this center.
   22          1
                                   No pseudopotential on this center.
   23          1
                                   No pseudopotential on this center.
   24          1
                                   No pseudopotential on this center.
   25          6
                                   No pseudopotential on this center.
   26          1
                                   No pseudopotential on this center.
   27          1
                                   No pseudopotential on this center.
   28          1
                                   No pseudopotential on this center.
   29          6
                                   No pseudopotential on this center.
   30          1
                                   No pseudopotential on this center.
   31          6
                                   No pseudopotential on this center.
   32          1
                                   No pseudopotential on this center.
   33          6
                                   No pseudopotential on this center.
   34          1
                                   No pseudopotential on this center.
   35          1
                                   No pseudopotential on this center.
   36          6
                                   No pseudopotential on this center.
   37          1
                                   No pseudopotential on this center.
   38          1
                                   No pseudopotential on this center.
   39          6
                                   No pseudopotential on this center.
   40          1
                                   No pseudopotential on this center.
   41          1
                                   No pseudopotential on this center.
   42          1
                                   No pseudopotential on this center.
   43          1
                                   No pseudopotential on this center.
 ======================================================================================================
   616 basis functions,   954 primitive gaussians,   637 cartesian basis functions
    74 alpha electrons       74 beta electrons
       nuclear repulsion energy      1601.4249380376 Hartrees.
 NAtoms=   43 NActive=   43 NUniq=   43 SFac= 1.00D+00 NAtFMM=   60 NAOKFM=F Big=F
 Integral buffers will be    131072 words long.
 Raffenetti 2 integral format.
 Two-electron integral symmetry is turned off.
 Nuclear repulsion after empirical dispersion term =     1601.3863351024 Hartrees.
 ------------------------------------------------------------------------------
 Polarizable Continuum Model (PCM)
 =================================
 Model                : PCM.
 Atomic radii         : UFF (Universal Force Field).
 Polarization charges : Total charges.
 Charge compensation  : None.
 Solution method      : On-the-fly selection.
 Cavity type          : Scaled VdW (van der Waals Surface) (Alpha=1.100).
 Cavity algorithm     : GePol (No added spheres)
                        Default sphere list used, NSphG=   43.
                        Lebedev-Laikov grids with approx.  5.0 points / Ang**2.
                        Smoothing algorithm: York/Karplus (Gamma=1.0000).
                        Polarization charges: spherical gaussians, with
                                              point-specific exponents (IZeta= 3).
                        Self-potential: point-specific (ISelfS= 7).
                        Self-field    : sphere-specific E.n sum rule (ISelfD= 2).
 Solvent              : Toluene, Eps=   2.374100 Eps(inf)=   2.238315
 ------------------------------------------------------------------------------
 One-electron integrals computed using PRISM.
   1 Symmetry operations used in ECPInt.
 ECPInt:  NShTT=   27966 NPrTT=   91822 LenC2=   25505 LenP2D=   58488.
 LDataN:  DoStor=T MaxTD1= 4 Len=   56
 Number of processors reduced to  74 by ecpmxn.
 NBasis=   616 RedAO= T EigKep=  1.03D-06  NBF=   616
 NBsUse=   609 1.00D-06 EigRej=  8.26D-07 NBFU=   609
 ExpMin= 3.15D-02 ExpMax= 6.29D+03 ExpMxC= 9.49D+02 IAcc=3 IRadAn=         5 AccDes= 0.00D+00
 Harris functional with IExCor= 4639 and IRadAn=       5 diagonalized for initial guess.
 HarFok:  IExCor= 4639 AccDes= 0.00D+00 IRadAn=         5 IDoV= 1 UseB2=F ITyADJ=14
 ICtDFT=  3500011 ScaDFX=  1.000000  1.000000  1.000000  1.000000
 FoFCou: FMM=F IPFlag=           0 FMFlag=      100000 FMFlg1=           0
         NFxFlg=           0 DoJE=T BraDBF=F KetDBF=T FulRan=T
         wScrn=  0.000000 ICntrl=       500 IOpCl=  0 I1Cent=   200000004 NGrid=           0
         NMat0=    1 NMatS0=      1 NMatT0=    0 NMatD0=    1 NMtDS0=    0 NMtDT0=    0
 Symmetry not used in FoFCou.
 Requested convergence on RMS density matrix=1.00D-08 within 300 cycles.
 Requested convergence on MAX density matrix=1.00D-06.
 Requested convergence on             energy=1.00D-06.
 No special actions if energy rises.
 Inv3:  Mode=1 IEnd=    25299648.
 Iteration    1 A*A^-1 deviation from unit magnitude is 5.00D-15 for   2896.
 Iteration    1 A*A^-1 deviation from orthogonality  is 2.22D-15 for   2896   2496.
 Iteration    1 A^-1*A deviation from unit magnitude is 5.00D-15 for   2896.
 Iteration    1 A^-1*A deviation from orthogonality  is 1.74D-15 for   2264   2033.
 Error on total polarization charges =  0.01201
 SCF Done:  E(RwB97XD) =  -816.763415866     A.U. after   16 cycles
            NFock= 16  Conv=0.86D-08     -V/T= 2.0045

 **********************************************************************

            Population analysis using the SCF Density.

 **********************************************************************

 Alpha  occ. eigenvalues --  -14.45056 -10.33358 -10.31170 -10.31001 -10.30290
 Alpha  occ. eigenvalues --  -10.30243 -10.29942 -10.29479 -10.29419 -10.29288
 Alpha  occ. eigenvalues --  -10.29026 -10.29003 -10.28875 -10.28826 -10.27500
 Alpha  occ. eigenvalues --  -10.27184 -10.27045 -10.26966 -10.25486 -10.24694
 Alpha  occ. eigenvalues --   -6.83814  -1.05603  -1.00678  -0.94543  -0.90605
 Alpha  occ. eigenvalues --   -0.90113  -0.86054  -0.84676  -0.83113  -0.82337
 Alpha  occ. eigenvalues --   -0.80210  -0.78217  -0.76359  -0.72469  -0.71381
 Alpha  occ. eigenvalues --   -0.69607  -0.66539  -0.66233  -0.64356  -0.62125
 Alpha  occ. eigenvalues --   -0.58313  -0.57566  -0.56608  -0.56146  -0.55706
 Alpha  occ. eigenvalues --   -0.55003  -0.54086  -0.53582  -0.51603  -0.51193
 Alpha  occ. eigenvalues --   -0.50655  -0.50265  -0.49143  -0.48490  -0.48077
 Alpha  occ. eigenvalues --   -0.47395  -0.46712  -0.45774  -0.45480  -0.44738
 Alpha  occ. eigenvalues --   -0.44716  -0.43741  -0.42569  -0.41545  -0.41425
 Alpha  occ. eigenvalues --   -0.40983  -0.39723  -0.37689  -0.37011  -0.36381
 Alpha  occ. eigenvalues --   -0.36146  -0.32641  -0.29088  -0.26858
 Alpha virt. eigenvalues --    0.00779   0.02065   0.03682   0.04510   0.04534
 Alpha virt. eigenvalues --    0.05354   0.05634   0.05735   0.05967   0.06617
 Alpha virt. eigenvalues --    0.06996   0.07242   0.07398   0.08115   0.08802
 Alpha virt. eigenvalues --    0.09092   0.09226   0.09290   0.09496   0.09862
 Alpha virt. eigenvalues --    0.10576   0.10755   0.11275   0.11537   0.12071
 Alpha virt. eigenvalues --    0.12419   0.12779   0.13338   0.13526   0.13970
 Alpha virt. eigenvalues --    0.14325   0.14738   0.14966   0.15514   0.15779
 Alpha virt. eigenvalues --    0.16020   0.16199   0.16533   0.16709   0.17089
 Alpha virt. eigenvalues --    0.17273   0.17423   0.17968   0.18321   0.18560
 Alpha virt. eigenvalues --    0.18765   0.18817   0.19078   0.19120   0.19315
 Alpha virt. eigenvalues --    0.19429   0.19724   0.20102   0.20185   0.20423
 Alpha virt. eigenvalues --    0.20995   0.21118   0.21214   0.21572   0.21741
 Alpha virt. eigenvalues --    0.21889   0.22107   0.22367   0.22567   0.23217
 Alpha virt. eigenvalues --    0.23399   0.23489   0.23657   0.23790   0.24276
 Alpha virt. eigenvalues --    0.24381   0.24745   0.25149   0.25298   0.25685
 Alpha virt. eigenvalues --    0.25902   0.26141   0.26355   0.26718   0.26790
 Alpha virt. eigenvalues --    0.26943   0.27490   0.27954   0.28378   0.28595
 Alpha virt. eigenvalues --    0.28779   0.29251   0.29585   0.29844   0.30180
 Alpha virt. eigenvalues --    0.30378   0.30507   0.31040   0.31048   0.31482
 Alpha virt. eigenvalues --    0.31827   0.32094   0.32200   0.32465   0.32633
 Alpha virt. eigenvalues --    0.33149   0.33456   0.33749   0.34048   0.34650
 Alpha virt. eigenvalues --    0.34770   0.35088   0.35246   0.35626   0.36038
 Alpha virt. eigenvalues --    0.36303   0.36661   0.37058   0.37508   0.37658
 Alpha virt. eigenvalues --    0.38175   0.38446   0.38831   0.39160   0.39461
 Alpha virt. eigenvalues --    0.39865   0.40011   0.40397   0.40704   0.41305
 Alpha virt. eigenvalues --    0.41396   0.41746   0.41990   0.42475   0.43059
 Alpha virt. eigenvalues --    0.43305   0.43785   0.43822   0.44462   0.44584
 Alpha virt. eigenvalues --    0.45649   0.46105   0.46843   0.47301   0.47878
 Alpha virt. eigenvalues --    0.48201   0.48468   0.49104   0.50674   0.51282
 Alpha virt. eigenvalues --    0.52504   0.54230   0.54561   0.55410   0.56464
 Alpha virt. eigenvalues --    0.57936   0.58862   0.59198   0.59606   0.60448
 Alpha virt. eigenvalues --    0.60888   0.61621   0.62440   0.63013   0.63692
 Alpha virt. eigenvalues --    0.64180   0.64387   0.65377   0.65523   0.66292
 Alpha virt. eigenvalues --    0.66715   0.67149   0.67637   0.68023   0.68401
 Alpha virt. eigenvalues --    0.68882   0.70157   0.70749   0.70980   0.71136
 Alpha virt. eigenvalues --    0.72075   0.72571   0.72971   0.73223   0.73408
 Alpha virt. eigenvalues --    0.74398   0.74882   0.75032   0.75640   0.76044
 Alpha virt. eigenvalues --    0.76411   0.76641   0.77162   0.77762   0.78358
 Alpha virt. eigenvalues --    0.79372   0.79787   0.79928   0.80552   0.80815
 Alpha virt. eigenvalues --    0.81239   0.81573   0.82244   0.82956   0.83334
 Alpha virt. eigenvalues --    0.83964   0.84300   0.84454   0.84932   0.85339
 Alpha virt. eigenvalues --    0.85915   0.86123   0.86478   0.87125   0.87565
 Alpha virt. eigenvalues --    0.87918   0.88697   0.89034   0.89418   0.89703
 Alpha virt. eigenvalues --    0.90572   0.90858   0.91273   0.91997   0.92957
 Alpha virt. eigenvalues --    0.94004   0.94555   0.95086   0.96151   0.96396
 Alpha virt. eigenvalues --    0.96948   0.97925   0.99682   1.00001   1.00652
 Alpha virt. eigenvalues --    1.01119   1.01442   1.02372   1.03538   1.03683
 Alpha virt. eigenvalues --    1.04680   1.05715   1.06375   1.06641   1.07414
 Alpha virt. eigenvalues --    1.07635   1.09391   1.09995   1.10344   1.11403
 Alpha virt. eigenvalues --    1.11869   1.12641   1.14038   1.14682   1.15398
 Alpha virt. eigenvalues --    1.16598   1.17246   1.17725   1.18612   1.18991
 Alpha virt. eigenvalues --    1.20619   1.21482   1.23086   1.23283   1.24235
 Alpha virt. eigenvalues --    1.24989   1.25558   1.27624   1.29471   1.31592
 Alpha virt. eigenvalues --    1.33070   1.33851   1.35140   1.36235   1.37779
 Alpha virt. eigenvalues --    1.39295   1.40601   1.42077   1.42550   1.44179
 Alpha virt. eigenvalues --    1.44685   1.46828   1.48128   1.51395   1.51881
 Alpha virt. eigenvalues --    1.53041   1.53629   1.54049   1.54739   1.55807
 Alpha virt. eigenvalues --    1.56921   1.58025   1.59869   1.60875   1.61573
 Alpha virt. eigenvalues --    1.62035   1.62546   1.62818   1.63800   1.64897
 Alpha virt. eigenvalues --    1.65972   1.66466   1.67080   1.67654   1.68213
 Alpha virt. eigenvalues --    1.69119   1.69196   1.69762   1.70453   1.71402
 Alpha virt. eigenvalues --    1.72218   1.73560   1.73804   1.74493   1.74581
 Alpha virt. eigenvalues --    1.76057   1.76151   1.76705   1.77308   1.78118
 Alpha virt. eigenvalues --    1.79054   1.80010   1.80856   1.80985   1.81414
 Alpha virt. eigenvalues --    1.82379   1.82541   1.84500   1.84600   1.85626
 Alpha virt. eigenvalues --    1.86226   1.86998   1.87887   1.89164   1.90369
 Alpha virt. eigenvalues --    1.90623   1.91119   1.91213   1.91894   1.92552
 Alpha virt. eigenvalues --    1.92837   1.94962   1.95020   1.95332   1.96152
 Alpha virt. eigenvalues --    1.96989   1.98171   1.98632   1.99192   1.99954
 Alpha virt. eigenvalues --    2.00963   2.01626   2.02135   2.02901   2.04391
 Alpha virt. eigenvalues --    2.05482   2.06414   2.07138   2.07876   2.08545
 Alpha virt. eigenvalues --    2.09446   2.09972   2.11915   2.13880   2.13989
 Alpha virt. eigenvalues --    2.15411   2.17047   2.17067   2.17795   2.18886
 Alpha virt. eigenvalues --    2.20692   2.22462   2.24218   2.24376   2.26239
 Alpha virt. eigenvalues --    2.27764   2.28854   2.29407   2.31196   2.31343
 Alpha virt. eigenvalues --    2.32524   2.34154   2.34296   2.35121   2.37176
 Alpha virt. eigenvalues --    2.38262   2.38874   2.41503   2.42007   2.43559
 Alpha virt. eigenvalues --    2.44675   2.45980   2.47502   2.48022   2.49184
 Alpha virt. eigenvalues --    2.50803   2.51889   2.52811   2.53450   2.56772
 Alpha virt. eigenvalues --    2.57118   2.57877   2.58482   2.59601   2.60698
 Alpha virt. eigenvalues --    2.62108   2.62892   2.63892   2.64168   2.65426
 Alpha virt. eigenvalues --    2.67052   2.68201   2.68584   2.69465   2.70350
 Alpha virt. eigenvalues --    2.71430   2.72387   2.73137   2.74819   2.75327
 Alpha virt. eigenvalues --    2.76281   2.78627   2.79807   2.80419   2.80863
 Alpha virt. eigenvalues --    2.81427   2.82005   2.82737   2.82934   2.83813
 Alpha virt. eigenvalues --    2.84262   2.85284   2.86012   2.86906   2.87618
 Alpha virt. eigenvalues --    2.88768   2.88992   2.89559   2.89945   2.91058
 Alpha virt. eigenvalues --    2.91254   2.92565   2.93079   2.93633   2.94651
 Alpha virt. eigenvalues --    2.95580   2.96096   2.97514   2.98835   2.99062
 Alpha virt. eigenvalues --    2.99458   3.00213   3.01058   3.03216   3.03979
 Alpha virt. eigenvalues --    3.05084   3.07200   3.08316   3.08867   3.10893
 Alpha virt. eigenvalues --    3.11480   3.13372   3.14410   3.18393   3.19671
 Alpha virt. eigenvalues --    3.20764   3.22766   3.24647   3.26076   3.29165
 Alpha virt. eigenvalues --    3.29972   3.32029   3.34116   3.35202   3.37150
 Alpha virt. eigenvalues --    3.42959   3.46290   3.49152   3.53186   3.53718
 Alpha virt. eigenvalues --    3.54932   3.61535   3.62472   3.64988   3.66480
 Alpha virt. eigenvalues --    3.68072   3.69906   3.74076   3.77710   3.80793
 Alpha virt. eigenvalues --    3.82931   3.84571   3.87195   3.87917   3.91016
 Alpha virt. eigenvalues --    3.92381   3.93950   3.94586   3.95305   3.96800
 Alpha virt. eigenvalues --    3.99803   4.03604   4.09775   4.13349   4.14443
 Alpha virt. eigenvalues --    4.17440   4.24496   4.25490   4.27489   4.34532
 Alpha virt. eigenvalues --    4.41332   4.45759   4.46897   4.48536   4.54414
 Alpha virt. eigenvalues --    4.89040   4.97824   5.00670   5.15977  14.88944
 Alpha virt. eigenvalues --   23.67260  23.82712  23.99034  24.05439  24.06042
 Alpha virt. eigenvalues --   24.06670  24.08293  24.08882  24.09949  24.10577
 Alpha virt. eigenvalues --   24.11490  24.12203  24.16566  24.21629  24.23827
 Alpha virt. eigenvalues --   24.27946  24.30467  24.32637  24.49216  35.76411
          Condensed to atoms (all electrons):
               1          2          3          4          5          6
     1  C   11.834293   1.899035  -2.275935   2.172794  -1.413651   0.117913
     2  C    1.899035  11.972033  -0.517223  -0.635227  -1.051241  -0.507185
     3  C   -2.275935  -0.517223  10.282949  -0.691076  -2.977276  -1.188781
     4  C    2.172794  -0.635227  -0.691076   7.406745  -1.080070   1.159101
     5  C   -1.413651  -1.051241  -2.977276  -1.080070  10.775171   0.939834
     6  C    0.117913  -0.507185  -1.188781   1.159101   0.939834   8.139492
     7  C   -0.018050  -0.047863  -0.807263   0.108817   1.012488  -0.750979
     8  H   -0.019862   0.014034  -0.032450   0.000535   0.423928  -0.006995
     9  C   -1.207638   0.124136   2.271459  -0.452991  -2.136594  -1.231341
    10  H    0.007461  -0.002705   0.022623   0.007910  -0.079188   0.013560
    11  H   -0.023558   0.002061   0.034627   0.017215  -0.030640  -0.066772
    12  C   -4.518699  -4.829138   1.821712  -0.566471   1.359587   0.407122
    13  H    0.001197  -0.049233   0.019398  -0.018750   0.003697   0.002578
    14  C    0.603778  -0.524934  -0.167973   0.160045  -0.202777   0.070402
    15  H   -0.011375  -0.047293   0.007667   0.007766   0.000351   0.002392
    16  C   -1.330523   1.599595   0.175486  -1.279429   0.327999  -0.481807
    17  C   -0.082590  -1.419175   0.088142   0.047972   0.496753  -0.037463
    18  H   -0.003388   0.081625  -0.004723  -0.024624   0.005901  -0.016350
    19  B    0.014794  -0.046035  -0.030017   0.112664   0.039981  -0.254840
    20  N    0.118217  -0.072949  -0.204861  -0.221807   0.129891  -0.194188
    21  C   -0.015669   0.012597  -0.052836   0.039036   0.004559   0.004145
    22  H    0.005503  -0.001058   0.002231  -0.003161   0.004364  -0.018086
    23  H   -0.005802   0.001743   0.001550  -0.004469  -0.004631   0.022785
    24  H   -0.006341   0.002802  -0.011222   0.009995   0.009768  -0.027204
    25  C    0.044637  -0.058597  -0.060660  -0.080425  -0.021821  -0.162721
    26  H   -0.002914  -0.018536  -0.011446  -0.011871   0.006313   0.017885
    27  H    0.012927   0.010252   0.015851   0.018727  -0.005936  -0.020336
    28  H    0.030583   0.015674  -0.021899   0.070198  -0.003634   0.115346
    29  C    0.125721  -0.157260  -0.101890   0.063968  -0.032083   0.037080
    30  H   -0.010382   0.004939   0.006593  -0.003140  -0.002546   0.025276
    31  C   -0.194166   0.030932   0.083218  -0.143191   0.015905  -0.012706
    32  H    0.016651  -0.022339  -0.004750   0.010044  -0.000471   0.004885
    33  C   -0.000257  -0.007531  -0.027267   0.008558  -0.005258   0.020722
    34  H   -0.001762   0.000762   0.000832  -0.002597   0.000129   0.000071
    35  H   -0.004492   0.000643   0.000124  -0.001806  -0.000022  -0.000551
    36  C    0.006133  -0.014505   0.029866   0.006795  -0.007065   0.093932
    37  H   -0.005028   0.000042   0.000785  -0.003091   0.000127   0.002611
    38  H    0.002242  -0.002093  -0.000024   0.000486   0.000042   0.001581
    39  C   -0.007451  -0.004574  -0.001245  -0.009081   0.000619  -0.026551
    40  H    0.001232  -0.000356  -0.000242   0.000710  -0.000053   0.000620
    41  H   -0.004859   0.002865   0.001956  -0.000999  -0.000598   0.007770
    42  H   -0.042413   0.054547   0.042975  -0.121884   0.001130  -0.090381
    43  H    0.002677  -0.003873  -0.003088  -0.003125  -0.001834  -0.002586
               7          8          9         10         11         12
     1  C   -0.018050  -0.019862  -1.207638   0.007461  -0.023558  -4.518699
     2  C   -0.047863   0.014034   0.124136  -0.002705   0.002061  -4.829138
     3  C   -0.807263  -0.032450   2.271459   0.022623   0.034627   1.821712
     4  C    0.108817   0.000535  -0.452991   0.007910   0.017215  -0.566471
     5  C    1.012488   0.423928  -2.136594  -0.079188  -0.030640   1.359587
     6  C   -0.750979  -0.006995  -1.231341   0.013560  -0.066772   0.407122
     7  C    7.302114   0.000353  -0.530196   0.392944  -0.091599  -0.151762
     8  H    0.000353   0.450002  -0.029960  -0.007477   0.001406   0.003666
     9  C   -0.530196  -0.029960  10.002852  -0.037854   0.522127   0.282941
    10  H    0.392944  -0.007477  -0.037854   0.455338  -0.006490  -0.001535
    11  H   -0.091599   0.001406   0.522127  -0.006490   0.480664   0.008608
    12  C   -0.151762   0.003666   0.282941  -0.001535   0.008608  11.572877
    13  H   -0.000840   0.000798  -0.002218   0.000170  -0.000047   0.399192
    14  C    0.018280  -0.000388   0.030156  -0.000095   0.000717   0.447889
    15  H    0.000210   0.000135   0.000540  -0.000017   0.000033  -0.021306
    16  C   -0.003374   0.000629  -0.160426   0.000239  -0.002599  -1.214340
    17  C    0.090889   0.004596  -0.360912   0.001379  -0.006281   1.340146
    18  H   -0.000342   0.000080  -0.003827   0.000014  -0.000030  -0.040148
    19  B   -0.001266   0.002712  -0.029436  -0.000346   0.000839   0.025685
    20  N    0.087261   0.000390  -0.651640  -0.002183  -0.034731  -0.015548
    21  C   -0.213775  -0.001378  -0.064744   0.000986   0.020619   0.018319
    22  H    0.016873  -0.000006  -0.013412   0.000251  -0.005694  -0.001199
    23  H   -0.011003  -0.000087   0.046560  -0.000029   0.005742   0.001723
    24  H    0.004493   0.000042   0.008520   0.000207  -0.008803   0.000376
    25  C    0.026915  -0.000588  -0.073010   0.001037  -0.010135  -0.005673
    26  H    0.018219   0.000003  -0.014255   0.000190  -0.001235  -0.000212
    27  H   -0.026032  -0.000077  -0.001519  -0.000408   0.002283   0.001002
    28  H   -0.003851   0.000020   0.004864  -0.000569  -0.002027  -0.006443
    29  C    0.019590  -0.000740  -0.048210   0.000435  -0.000731   0.004828
    30  H   -0.000668  -0.000148   0.005631   0.000060   0.000030   0.011382
    31  C    0.000529   0.000048   0.000665  -0.000027  -0.000510   0.056766
    32  H    0.000344   0.000005   0.000526   0.000000  -0.000042   0.006161
    33  C    0.000136  -0.000005   0.002524  -0.000025   0.000175  -0.012663
    34  H    0.000008  -0.000000  -0.000160   0.000001  -0.000006   0.000903
    35  H   -0.000036   0.000002   0.000101  -0.000001   0.000008   0.000064
    36  C    0.009714  -0.000158   0.033268   0.000253  -0.000315   0.008667
    37  H    0.000131  -0.000005  -0.000508   0.000007  -0.000036   0.000125
    38  H    0.000369  -0.000001  -0.000537   0.000013  -0.000139   0.000393
    39  C    0.000548  -0.000002  -0.002215  -0.000001  -0.000053   0.000147
    40  H    0.000035  -0.000001   0.000028   0.000001   0.000009   0.000035
    41  H   -0.000145  -0.000001   0.003299  -0.000001  -0.000067  -0.001130
    42  H   -0.013805   0.000091  -0.011397  -0.000808   0.002187  -0.009406
    43  H   -0.000322  -0.000004   0.001563  -0.000019   0.000114  -0.001413
              13         14         15         16         17         18
     1  C    0.001197   0.603778  -0.011375  -1.330523  -0.082590  -0.003388
     2  C   -0.049233  -0.524934  -0.047293   1.599595  -1.419175   0.081625
     3  C    0.019398  -0.167973   0.007667   0.175486   0.088142  -0.004723
     4  C   -0.018750   0.160045   0.007766  -1.279429   0.047972  -0.024624
     5  C    0.003697  -0.202777   0.000351   0.327999   0.496753   0.005901
     6  C    0.002578   0.070402   0.002392  -0.481807  -0.037463  -0.016350
     7  C   -0.000840   0.018280   0.000210  -0.003374   0.090889  -0.000342
     8  H    0.000798  -0.000388   0.000135   0.000629   0.004596   0.000080
     9  C   -0.002218   0.030156   0.000540  -0.160426  -0.360912  -0.003827
    10  H    0.000170  -0.000095  -0.000017   0.000239   0.001379   0.000014
    11  H   -0.000047   0.000717   0.000033  -0.002599  -0.006281  -0.000030
    12  C    0.399192   0.447889  -0.021306  -1.214340   1.340146  -0.040148
    13  H    0.439752   0.005079  -0.005956   0.001127  -0.018712   0.003398
    14  C    0.005079   6.844435   0.382353  -0.326376  -0.938701   0.019668
    15  H   -0.005956   0.382353   0.463427  -0.032286   0.039502  -0.015199
    16  C    0.001127  -0.326376  -0.032286   9.743335  -1.391764   0.496131
    17  C   -0.018712  -0.938701   0.039502  -1.391764   7.973749  -0.203289
    18  H    0.003398   0.019668  -0.015199   0.496131  -0.203289   0.526626
    19  B    0.004444  -0.055616  -0.010254  -0.233704   0.544950   0.064893
    20  N    0.000198  -0.004366   0.000126   0.062593   0.096088   0.002445
    21  C    0.000071  -0.002459   0.000026  -0.016154  -0.006794  -0.000373
    22  H    0.000006   0.000009  -0.000004   0.001548   0.003405   0.000039
    23  H    0.000002  -0.000276   0.000005  -0.003423  -0.004975  -0.000107
    24  H    0.000007  -0.000312  -0.000011   0.000212   0.001120   0.000008
    25  C    0.000121   0.002493   0.000115  -0.060040  -0.024660  -0.004151
    26  H    0.000105   0.003976   0.000016   0.003168  -0.003015   0.000050
    27  H    0.000017  -0.001843  -0.000070   0.001005   0.005309   0.000182
    28  H   -0.000892   0.013623   0.000954  -0.013184   0.017288  -0.005987
    29  C   -0.001136   0.123627   0.003221  -0.073723  -0.083156  -0.026449
    30  H   -0.000050   0.002994   0.000180  -0.013507   0.026805  -0.001853
    31  C   -0.000865  -0.030524   0.000501   0.272862  -0.323591  -0.008178
    32  H   -0.000130   0.013919   0.000625  -0.053996   0.007594  -0.004105
    33  C   -0.000032   0.088351   0.000301   0.042758  -0.020992   0.004042
    34  H    0.000010   0.001611  -0.000031   0.010887  -0.011436   0.000438
    35  H   -0.000006   0.001423  -0.000065   0.013307  -0.031768  -0.003672
    36  C    0.000001  -0.012039  -0.000398  -0.133825  -0.016059  -0.011416
    37  H   -0.000011   0.001846   0.000024   0.012565  -0.020355  -0.001572
    38  H    0.000009  -0.000497  -0.000039  -0.003812  -0.001729   0.000132
    39  C   -0.000094   0.000209   0.000507   0.002069  -0.056729  -0.009361
    40  H    0.000003   0.000109   0.000007  -0.003806   0.007791  -0.000051
    41  H   -0.000052  -0.001490   0.000068  -0.000112  -0.016369  -0.002301
    42  H   -0.000413   0.012296   0.000216   0.187142  -0.062767   0.000693
    43  H   -0.000086  -0.004075   0.000239  -0.016276  -0.032605  -0.008903
              19         20         21         22         23         24
     1  C    0.014794   0.118217  -0.015669   0.005503  -0.005802  -0.006341
     2  C   -0.046035  -0.072949   0.012597  -0.001058   0.001743   0.002802
     3  C   -0.030017  -0.204861  -0.052836   0.002231   0.001550  -0.011222
     4  C    0.112664  -0.221807   0.039036  -0.003161  -0.004469   0.009995
     5  C    0.039981   0.129891   0.004559   0.004364  -0.004631   0.009768
     6  C   -0.254840  -0.194188   0.004145  -0.018086   0.022785  -0.027204
     7  C   -0.001266   0.087261  -0.213775   0.016873  -0.011003   0.004493
     8  H    0.002712   0.000390  -0.001378  -0.000006  -0.000087   0.000042
     9  C   -0.029436  -0.651640  -0.064744  -0.013412   0.046560   0.008520
    10  H   -0.000346  -0.002183   0.000986   0.000251  -0.000029   0.000207
    11  H    0.000839  -0.034731   0.020619  -0.005694   0.005742  -0.008803
    12  C    0.025685  -0.015548   0.018319  -0.001199   0.001723   0.000376
    13  H    0.004444   0.000198   0.000071   0.000006   0.000002   0.000007
    14  C   -0.055616  -0.004366  -0.002459   0.000009  -0.000276  -0.000312
    15  H   -0.010254   0.000126   0.000026  -0.000004   0.000005  -0.000011
    16  C   -0.233704   0.062593  -0.016154   0.001548  -0.003423   0.000212
    17  C    0.544950   0.096088  -0.006794   0.003405  -0.004975   0.001120
    18  H    0.064893   0.002445  -0.000373   0.000039  -0.000107   0.000008
    19  B    8.889951   0.106442  -0.010216   0.003770  -0.015594  -0.001376
    20  N    0.106442   7.338412   0.221938  -0.047997  -0.073669  -0.052716
    21  C   -0.010216   0.221938   5.465448   0.403229   0.415783   0.419244
    22  H    0.003770  -0.047997   0.403229   0.584789  -0.052616  -0.048783
    23  H   -0.015594  -0.073669   0.415783  -0.052616   0.516648  -0.007393
    24  H   -0.001376  -0.052716   0.419244  -0.048783  -0.007393   0.522276
    25  C   -0.170846   0.345420  -0.212774  -0.005881  -0.007037   0.016711
    26  H    0.054704  -0.030385  -0.012910   0.011098  -0.002581  -0.009227
    27  H    0.009093  -0.101286  -0.004294   0.009015  -0.000946   0.001724
    28  H   -0.349708  -0.101789   0.024456  -0.004769   0.008867  -0.001548
    29  C   -0.696785   0.014388   0.028648   0.000057   0.006349   0.001221
    30  H   -0.334982  -0.010072   0.003439   0.000318   0.001146  -0.000148
    31  C   -0.227327  -0.002795  -0.007418  -0.000109  -0.001262   0.000872
    32  H   -0.109401  -0.000440  -0.000102  -0.000009   0.000011   0.000018
    33  C   -0.085885  -0.002413  -0.000717   0.000128   0.000385  -0.000302
    34  H    0.033698   0.000498   0.000055   0.000015   0.000041  -0.000002
    35  H   -0.138846   0.000108  -0.000310   0.000010  -0.000101  -0.000005
    36  C   -0.161782  -0.051007  -0.000809  -0.001447   0.000060   0.001332
    37  H   -0.131619  -0.002560  -0.000197  -0.000089   0.000236   0.000085
    38  H    0.033413   0.000584  -0.000041   0.000472  -0.001948   0.000090
    39  C   -0.375487   0.015883   0.006498   0.000556  -0.000129  -0.000593
    40  H    0.041289  -0.000043   0.000711   0.000013   0.000260  -0.000079
    41  H   -0.231422  -0.007282  -0.000093  -0.001110   0.000020   0.001254
    42  H   -0.499590   0.065474  -0.082010  -0.000895  -0.005684  -0.006467
    43  H   -0.330663  -0.003510  -0.001521  -0.000113   0.000095  -0.000039
              25         26         27         28         29         30
     1  C    0.044637  -0.002914   0.012927   0.030583   0.125721  -0.010382
     2  C   -0.058597  -0.018536   0.010252   0.015674  -0.157260   0.004939
     3  C   -0.060660  -0.011446   0.015851  -0.021899  -0.101890   0.006593
     4  C   -0.080425  -0.011871   0.018727   0.070198   0.063968  -0.003140
     5  C   -0.021821   0.006313  -0.005936  -0.003634  -0.032083  -0.002546
     6  C   -0.162721   0.017885  -0.020336   0.115346   0.037080   0.025276
     7  C    0.026915   0.018219  -0.026032  -0.003851   0.019590  -0.000668
     8  H   -0.000588   0.000003  -0.000077   0.000020  -0.000740  -0.000148
     9  C   -0.073010  -0.014255  -0.001519   0.004864  -0.048210   0.005631
    10  H    0.001037   0.000190  -0.000408  -0.000569   0.000435   0.000060
    11  H   -0.010135  -0.001235   0.002283  -0.002027  -0.000731   0.000030
    12  C   -0.005673  -0.000212   0.001002  -0.006443   0.004828   0.011382
    13  H    0.000121   0.000105   0.000017  -0.000892  -0.001136  -0.000050
    14  C    0.002493   0.003976  -0.001843   0.013623   0.123627   0.002994
    15  H    0.000115   0.000016  -0.000070   0.000954   0.003221   0.000180
    16  C   -0.060040   0.003168   0.001005  -0.013184  -0.073723  -0.013507
    17  C   -0.024660  -0.003015   0.005309   0.017288  -0.083156   0.026805
    18  H   -0.004151   0.000050   0.000182  -0.005987  -0.026449  -0.001853
    19  B   -0.170846   0.054704   0.009093  -0.349708  -0.696785  -0.334982
    20  N    0.345420  -0.030385  -0.101286  -0.101789   0.014388  -0.010072
    21  C   -0.212774  -0.012910  -0.004294   0.024456   0.028648   0.003439
    22  H   -0.005881   0.011098   0.009015  -0.004769   0.000057   0.000318
    23  H   -0.007037  -0.002581  -0.000946   0.008867   0.006349   0.001146
    24  H    0.016711  -0.009227   0.001724  -0.001548   0.001221  -0.000148
    25  C    5.817881   0.328970   0.458970   0.217647   0.050089  -0.000817
    26  H    0.328970   0.660770  -0.061444  -0.048972   0.000817   0.001834
    27  H    0.458970  -0.061444   0.549152  -0.072067  -0.010703  -0.000473
    28  H    0.217647  -0.048972  -0.072067   0.803962   0.102336   0.012563
    29  C    0.050089   0.000817  -0.010703   0.102336   6.337124   0.482649
    30  H   -0.000817   0.001834  -0.000473   0.012563   0.482649   0.584353
    31  C    0.027304  -0.003352  -0.007681   0.041991  -0.035441  -0.002966
    32  H   -0.001056   0.001112  -0.001318   0.008494   0.000633  -0.009691
    33  C   -0.007966   0.000144   0.005354   0.014375   0.221527  -0.013926
    34  H   -0.002473   0.001303  -0.000258   0.001431   0.007773   0.001494
    35  H    0.001950  -0.000255   0.000157   0.000267   0.032028  -0.000142
    36  C    0.083935   0.028641   0.002521  -0.033909  -0.571805   0.007421
    37  H    0.002833  -0.000533  -0.000080   0.003422  -0.043596   0.009545
    38  H    0.001502   0.003564   0.000013  -0.001582  -0.095371  -0.013866
    39  C   -0.040885  -0.006739  -0.007746   0.030537   0.036044   0.018989
    40  H   -0.002090   0.002076  -0.000164  -0.000246   0.007933   0.000086
    41  H    0.013156  -0.029593  -0.001267   0.024866   0.051951   0.006676
    42  H    0.030232  -0.048467   0.008310   0.001159   0.428644  -0.022985
    43  H    0.052033  -0.008970   0.007234  -0.014736   0.018693  -0.007712
              31         32         33         34         35         36
     1  C   -0.194166   0.016651  -0.000257  -0.001762  -0.004492   0.006133
     2  C    0.030932  -0.022339  -0.007531   0.000762   0.000643  -0.014505
     3  C    0.083218  -0.004750  -0.027267   0.000832   0.000124   0.029866
     4  C   -0.143191   0.010044   0.008558  -0.002597  -0.001806   0.006795
     5  C    0.015905  -0.000471  -0.005258   0.000129  -0.000022  -0.007065
     6  C   -0.012706   0.004885   0.020722   0.000071  -0.000551   0.093932
     7  C    0.000529   0.000344   0.000136   0.000008  -0.000036   0.009714
     8  H    0.000048   0.000005  -0.000005  -0.000000   0.000002  -0.000158
     9  C    0.000665   0.000526   0.002524  -0.000160   0.000101   0.033268
    10  H   -0.000027   0.000000  -0.000025   0.000001  -0.000001   0.000253
    11  H   -0.000510  -0.000042   0.000175  -0.000006   0.000008  -0.000315
    12  C    0.056766   0.006161  -0.012663   0.000903   0.000064   0.008667
    13  H   -0.000865  -0.000130  -0.000032   0.000010  -0.000006   0.000001
    14  C   -0.030524   0.013919   0.088351   0.001611   0.001423  -0.012039
    15  H    0.000501   0.000625   0.000301  -0.000031  -0.000065  -0.000398
    16  C    0.272862  -0.053996   0.042758   0.010887   0.013307  -0.133825
    17  C   -0.323591   0.007594  -0.020992  -0.011436  -0.031768  -0.016059
    18  H   -0.008178  -0.004105   0.004042   0.000438  -0.003672  -0.011416
    19  B   -0.227327  -0.109401  -0.085885   0.033698  -0.138846  -0.161782
    20  N   -0.002795  -0.000440  -0.002413   0.000498   0.000108  -0.051007
    21  C   -0.007418  -0.000102  -0.000717   0.000055  -0.000310  -0.000809
    22  H   -0.000109  -0.000009   0.000128   0.000015   0.000010  -0.001447
    23  H   -0.001262   0.000011   0.000385   0.000041  -0.000101   0.000060
    24  H    0.000872   0.000018  -0.000302  -0.000002  -0.000005   0.001332
    25  C    0.027304  -0.001056  -0.007966  -0.002473   0.001950   0.083935
    26  H   -0.003352   0.001112   0.000144   0.001303  -0.000255   0.028641
    27  H   -0.007681  -0.001318   0.005354  -0.000258   0.000157   0.002521
    28  H    0.041991   0.008494   0.014375   0.001431   0.000267  -0.033909
    29  C   -0.035441   0.000633   0.221527   0.007773   0.032028  -0.571805
    30  H   -0.002966  -0.009691  -0.013926   0.001494  -0.000142   0.007421
    31  C    5.989408   0.397515  -0.572429  -0.053590  -0.088671   0.148137
    32  H    0.397515   0.570379  -0.020681  -0.014753   0.005266  -0.010808
    33  C   -0.572429  -0.020681   6.925155   0.442055   0.531922  -0.253298
    34  H   -0.053590  -0.014753   0.442055   0.529964  -0.018669   0.016655
    35  H   -0.088671   0.005266   0.531922  -0.018669   0.536254  -0.054169
    36  C    0.148137  -0.010808  -0.253298   0.016655  -0.054169   6.861839
    37  H    0.025036  -0.000240  -0.063483  -0.002220   0.008906   0.495240
    38  H    0.010185   0.001924   0.006087   0.000273  -0.004373   0.495618
    39  C    0.119148   0.027781  -0.329141  -0.090729   0.030985  -0.205354
    40  H   -0.001657   0.000442  -0.010972  -0.007558  -0.006776  -0.056320
    41  H    0.045188   0.000622  -0.149210  -0.006818   0.011991  -0.122491
    42  H    0.092646  -0.006658   0.026165   0.001858   0.008203  -0.099877
    43  H    0.512200   0.006771  -0.028916  -0.020547   0.016879   0.013286
              37         38         39         40         41         42
     1  C   -0.005028   0.002242  -0.007451   0.001232  -0.004859  -0.042413
     2  C    0.000042  -0.002093  -0.004574  -0.000356   0.002865   0.054547
     3  C    0.000785  -0.000024  -0.001245  -0.000242   0.001956   0.042975
     4  C   -0.003091   0.000486  -0.009081   0.000710  -0.000999  -0.121884
     5  C    0.000127   0.000042   0.000619  -0.000053  -0.000598   0.001130
     6  C    0.002611   0.001581  -0.026551   0.000620   0.007770  -0.090381
     7  C    0.000131   0.000369   0.000548   0.000035  -0.000145  -0.013805
     8  H   -0.000005  -0.000001  -0.000002  -0.000001  -0.000001   0.000091
     9  C   -0.000508  -0.000537  -0.002215   0.000028   0.003299  -0.011397
    10  H    0.000007   0.000013  -0.000001   0.000001  -0.000001  -0.000808
    11  H   -0.000036  -0.000139  -0.000053   0.000009  -0.000067   0.002187
    12  C    0.000125   0.000393   0.000147   0.000035  -0.001130  -0.009406
    13  H   -0.000011   0.000009  -0.000094   0.000003  -0.000052  -0.000413
    14  C    0.001846  -0.000497   0.000209   0.000109  -0.001490   0.012296
    15  H    0.000024  -0.000039   0.000507   0.000007   0.000068   0.000216
    16  C    0.012565  -0.003812   0.002069  -0.003806  -0.000112   0.187142
    17  C   -0.020355  -0.001729  -0.056729   0.007791  -0.016369  -0.062767
    18  H   -0.001572   0.000132  -0.009361  -0.000051  -0.002301   0.000693
    19  B   -0.131619   0.033413  -0.375487   0.041289  -0.231422  -0.499590
    20  N   -0.002560   0.000584   0.015883  -0.000043  -0.007282   0.065474
    21  C   -0.000197  -0.000041   0.006498   0.000711  -0.000093  -0.082010
    22  H   -0.000089   0.000472   0.000556   0.000013  -0.001110  -0.000895
    23  H    0.000236  -0.001948  -0.000129   0.000260   0.000020  -0.005684
    24  H    0.000085   0.000090  -0.000593  -0.000079   0.001254  -0.006467
    25  C    0.002833   0.001502  -0.040885  -0.002090   0.013156   0.030232
    26  H   -0.000533   0.003564  -0.006739   0.002076  -0.029593  -0.048467
    27  H   -0.000080   0.000013  -0.007746  -0.000164  -0.001267   0.008310
    28  H    0.003422  -0.001582   0.030537  -0.000246   0.024866   0.001159
    29  C   -0.043596  -0.095371   0.036044   0.007933   0.051951   0.428644
    30  H    0.009545  -0.013866   0.018989   0.000086   0.006676  -0.022985
    31  C    0.025036   0.010185   0.119148  -0.001657   0.045188   0.092646
    32  H   -0.000240   0.001924   0.027781   0.000442   0.000622  -0.006658
    33  C   -0.063483   0.006087  -0.329141  -0.010972  -0.149210   0.026165
    34  H   -0.002220   0.000273  -0.090729  -0.007558  -0.006818   0.001858
    35  H    0.008906  -0.004373   0.030985  -0.006776   0.011991   0.008203
    36  C    0.495240   0.495618  -0.205354  -0.056320  -0.122491  -0.099877
    37  H    0.533598  -0.013804   0.013918  -0.012741   0.014512   0.012580
    38  H   -0.013804   0.524307  -0.095618  -0.004355  -0.004357  -0.021367
    39  C    0.013918  -0.095618   6.032710   0.368770   0.649162   0.019168
    40  H   -0.012741  -0.004355   0.368770   0.506245  -0.037369  -0.007568
    41  H    0.014512  -0.004357   0.649162  -0.037369   0.636040   0.023085
    42  H    0.012580  -0.021367   0.019168  -0.007568   0.023085   0.849545
    43  H    0.001720   0.000176   0.027617  -0.003012   0.009655   0.018867
              43
     1  C    0.002677
     2  C   -0.003873
     3  C   -0.003088
     4  C   -0.003125
     5  C   -0.001834
     6  C   -0.002586
     7  C   -0.000322
     8  H   -0.000004
     9  C    0.001563
    10  H   -0.000019
    11  H    0.000114
    12  C   -0.001413
    13  H   -0.000086
    14  C   -0.004075
    15  H    0.000239
    16  C   -0.016276
    17  C   -0.032605
    18  H   -0.008903
    19  B   -0.330663
    20  N   -0.003510
    21  C   -0.001521
    22  H   -0.000113
    23  H    0.000095
    24  H   -0.000039
    25  C    0.052033
    26  H   -0.008970
    27  H    0.007234
    28  H   -0.014736
    29  C    0.018693
    30  H   -0.007712
    31  C    0.512200
    32  H    0.006771
    33  C   -0.028916
    34  H   -0.020547
    35  H    0.016879
    36  C    0.013286
    37  H    0.001720
    38  H    0.000176
    39  C    0.027617
    40  H   -0.003012
    41  H    0.009655
    42  H    0.018867
    43  H    0.578645
 Mulliken charges:
               1
     1  C    0.189020
     2  C    0.210606
     3  C    0.284103
     4  C   -0.070793
     5  C   -0.501145
     6  C   -0.109282
     7  C   -0.438089
     8  H    0.196860
     9  C   -0.276761
    10  H    0.234700
    11  H    0.193078
    12  C   -0.383231
    13  H    0.218145
    14  C   -0.574549
    15  H    0.232798
    16  C   -0.106169
    17  C    0.382412
    18  H    0.194035
    19  B   -0.450275
    20  N    0.283884
    21  C   -0.382212
    22  H    0.158739
    23  H    0.173752
    24  H    0.180195
    25  C   -0.509641
    26  H    0.181954
    27  H    0.206849
    28  H    0.122888
    29  C   -0.228290
    30  H    0.235673
    31  C   -0.152601
    32  H    0.179269
    33  C   -0.727497
    34  H    0.180846
    35  H    0.154139
    36  C   -0.524456
    37  H    0.161877
    38  H    0.182079
    39  C   -0.132085
    40  H    0.217053
    41  H    0.115003
    42  H    0.267631
    43  H    0.229487
 Sum of Mulliken charges =  -0.00000
 Mulliken charges with hydrogens summed into heavy atoms:
               1
     1  C    0.189020
     2  C    0.210606
     3  C    0.284103
     4  C   -0.070793
     5  C   -0.304285
     6  C   -0.109282
     7  C   -0.203389
     9  C   -0.083682
    12  C   -0.165086
    14  C   -0.341751
    16  C    0.087865
    17  C    0.382412
    19  B   -0.450275
    20  N    0.283884
    21  C    0.130474
    25  C    0.002049
    29  C    0.275014
    31  C    0.256156
    33  C   -0.392512
    36  C   -0.180501
    39  C    0.199972
 Electronic spatial extent (au):  <R**2>=          13095.3062
 Charge=             -0.0000 electrons
 Dipole moment (field-independent basis, Debye):
    X=             -0.8432    Y=              0.8705    Z=              1.4548  Tot=              1.8935
 Quadrupole moment (field-independent basis, Debye-Ang):
   XX=           -132.6761   YY=           -112.3161   ZZ=           -115.0410
   XY=             -6.3778   XZ=              0.7926   YZ=              8.2655
 Traceless Quadrupole moment (field-independent basis, Debye-Ang):
   XX=            -12.6650   YY=              7.6950   ZZ=              4.9700
   XY=             -6.3778   XZ=              0.7926   YZ=              8.2655
 Octapole moment (field-independent basis, Debye-Ang**2):
  XXX=           -794.5909  YYY=           -952.4587  ZZZ=           -333.5490  XYY=           -275.7722
  XXY=           -395.9266  XXZ=           -101.0978  XZZ=           -252.6615  YZZ=           -311.9949
  YYZ=            -69.1211  XYZ=             10.9397
 Hexadecapole moment (field-independent basis, Debye-Ang**3):
 XXXX=          -4458.8265 YYYY=          -8580.0552 ZZZZ=          -4434.9230 XXXY=          -1639.4891
 XXXZ=          -1095.3981 YYYX=          -1605.3461 YYYZ=           -394.4399 ZZZX=          -1149.9031
 ZZZY=           -586.1829 XXYY=          -2469.9178 XXZZ=          -1526.4868 YYZZ=          -2115.1902
 XXYZ=           -178.2398 YYXZ=           -311.5499 ZZXY=           -495.5210
 N-N= 1.601386335102D+03 E-N=-5.097643747530D+03  KE= 8.130785256140D+02
 Breneman (CHELPG) radii used.
 Generate Potential Derived Charges using the Breneman model, NDens= 1.
 Grid spacing= 0.300 Box extension= 2.800
 NStep X,Y,Z=   40     47     51   Total possible points=       95880
 Number of Points to Fit=   22553

 **********************************************************************

            Electrostatic Properties Using The SCF Density.

 **********************************************************************

       Atomic Center    1 is at   1.943331  2.444959 -0.385429
       Atomic Center    2 is at   1.690245  2.535054 -1.776373
       Atomic Center    3 is at   1.222071  3.957528 -1.596891
       Atomic Center    4 is at   1.422484  3.849583 -0.203715
       Atomic Center    5 is at   0.791117  5.104270 -2.204900
       Atomic Center    6 is at   1.117603  4.871635  0.672873
       Atomic Center    7 is at   0.534775  6.180277 -1.327684
       Atomic Center    8 is at   0.651740  5.202332 -3.274187
       Atomic Center    9 is at   0.679017  6.071249  0.044702
       Atomic Center   10 is at   0.191083  7.124784 -1.735626
       Atomic Center   11 is at   0.431043  6.930975  0.654523
       Atomic Center   12 is at   1.936324  1.501678 -2.632047
       Atomic Center   13 is at   1.758071  1.552725 -3.699702
       Atomic Center   14 is at   2.451318  0.324633 -2.031805
       Atomic Center   15 is at   2.656619 -0.538403 -2.655874
       Atomic Center   16 is at   2.706619  0.249091 -0.676361
       Atomic Center   17 is at   2.490218  1.338916  0.223498
       Atomic Center   18 is at   3.114009 -0.677166 -0.281791
       Atomic Center   19 is at   2.956871  1.268071  1.719434
       Atomic Center   20 is at   1.231287  4.726300  2.061581
       Atomic Center   21 is at   1.097301  5.915501  2.878975
       Atomic Center   22 is at   0.067189  6.305706  2.907516
       Atomic Center   23 is at   1.393206  5.669489  3.900846
       Atomic Center   24 is at   1.762131  6.701094  2.516458
       Atomic Center   25 is at   0.537047  3.577276  2.625416
       Atomic Center   26 is at   0.943543  3.351851  3.614600
       Atomic Center   27 is at  -0.543608  3.762322  2.721597
       Atomic Center   28 is at   0.671173  2.698706  1.994682
       Atomic Center   29 is at   3.813735  2.445570  2.305544
       Atomic Center   30 is at   4.566396  2.768489  1.576185
       Atomic Center   31 is at   2.512110  0.078275  2.644944
       Atomic Center   32 is at   2.480620 -0.877430  2.108174
       Atomic Center   33 is at   3.269080 -0.034333  3.975399
       Atomic Center   34 is at   2.713709 -0.658485  4.682995
       Atomic Center   35 is at   4.228614 -0.539154  3.807138
       Atomic Center   36 is at   4.442505  2.190041  3.684142
       Atomic Center   37 is at   5.395548  1.661758  3.556277
       Atomic Center   38 is at   4.684052  3.137311  4.177404
       Atomic Center   39 is at   3.547016  1.340309  4.589031
       Atomic Center   40 is at   4.017069  1.221863  5.570604
       Atomic Center   41 is at   2.594572  1.861384  4.759887
       Atomic Center   42 is at   3.123347  3.306000  2.353673
       Atomic Center   43 is at   1.449964  0.301963  2.850220
   22553 points will be used for fitting atomic charges
 Fitting point charges to electrostatic potential
 Charges from ESP fit, RMS=   0.00410 RRMS=   0.37311:
 ESP charges:
               1
     1  C    0.120544
     2  C    0.031760
     3  C    0.101673
     4  C   -0.200095
     5  C   -0.228974
     6  C    0.293829
     7  C   -0.071396
     8  H    0.133256
     9  C   -0.256941
    10  H    0.105684
    11  H    0.130941
    12  C   -0.185039
    13  H    0.127984
    14  C   -0.083205
    15  H    0.097777
    16  C   -0.178503
    17  C   -0.175102
    18  H    0.106379
    19  B    0.476801
    20  N   -0.229752
    21  C   -0.169069
    22  H    0.069311
    23  H    0.090779
    24  H    0.082170
    25  C    0.217492
    26  H    0.019274
    27  H   -0.031893
    28  H   -0.065924
    29  C   -0.125298
    30  H   -0.043552
    31  C   -0.306262
    32  H    0.046671
    33  C    0.141570
    34  H   -0.020192
    35  H   -0.023909
    36  C    0.141665
    37  H   -0.029969
    38  H   -0.025085
    39  C   -0.146552
    40  H    0.011161
    41  H    0.031309
    42  H   -0.028165
    43  H    0.046843
 Sum of ESP charges =  -0.00000
 ESP charges with hydrogens summed into heavy atoms:
               1
     1  C    0.120544
     2  C    0.031760
     3  C    0.101673
     4  C   -0.200095
     5  C   -0.095718
     6  C    0.293829
     7  C    0.034288
     9  C   -0.126000
    12  C   -0.057055
    14  C    0.014573
    16  C   -0.072123
    17  C   -0.175102
    19  B    0.476801
    20  N   -0.229752
    21  C    0.073191
    25  C    0.138949
    29  C   -0.197014
    31  C   -0.212747
    33  C    0.097468
    36  C    0.086611
    39  C   -0.104082
 Charge=  -0.00000 Dipole=    -0.9674     0.8944     1.2997 Tot=     1.8507
 -----------------------------------------------------------------

              Electrostatic Properties (Atomic Units)

 -----------------------------------------------------------------
    Center     Electric         -------- Electric Field --------
               Potential          X             Y             Z
 -----------------------------------------------------------------
    1 Atom    -14.767990
    2 Atom    -14.771504
    3 Atom    -14.767763
    4 Atom    -14.774133
    5 Atom    -14.777654
    6 Atom    -14.729827
    7 Atom    -14.771304
    8 Atom     -1.103863
    9 Atom    -14.773582
   10 Atom     -1.106448
   11 Atom     -1.100983
   12 Atom    -14.774127
   13 Atom     -1.103037
   14 Atom    -14.777962
   15 Atom     -1.111268
   16 Atom    -14.776468
   17 Atom    -14.791969
   18 Atom     -1.113218
   19 Atom    -11.476990
   20 Atom    -18.371614
   21 Atom    -14.741359
   22 Atom     -1.108668
   23 Atom     -1.102804
   24 Atom     -1.104383
   25 Atom    -14.741693
   26 Atom     -1.104762
   27 Atom     -1.110448
   28 Atom     -1.104528
   29 Atom    -14.811079
   30 Atom     -1.132658
   31 Atom    -14.801210
   32 Atom     -1.123685
   33 Atom    -14.782848
   34 Atom     -1.139310
   35 Atom     -1.137136
   36 Atom    -14.785868
   37 Atom     -1.140833
   38 Atom     -1.142191
   39 Atom    -14.784470
   40 Atom     -1.136173
   41 Atom     -1.132917
   42 Atom     -1.120467
   43 Atom     -1.110889
 -----------------------------------------------------------------
 Unable to Open any file for archive entry.
 1\1\GINC-IRENE5987\SP\RwB97XD\GenECP\C19H22B1N1\PENASFRA\11-Apr-2024\0
 \\# wb97xd/genecp scrf=(solvent=toluene,pcm) nosymm pop=(chelpg) scfcy
 c=300\\cyclo_biphenylene_chelpg\\0,1\C,0,1.943331,2.444959,-0.385429\C
 ,0,1.690245,2.535054,-1.776373\C,0,1.222071,3.957528,-1.596891\C,0,1.4
 22484,3.849583,-0.203715\C,0,0.791117,5.10427,-2.2049\C,0,1.117603,4.8
 71635,0.672873\C,0,0.534775,6.180277,-1.327684\H,0,0.65174,5.202332,-3
 .274187\C,0,0.679017,6.071249,0.044702\H,0,0.191083,7.124784,-1.735626
 \H,0,0.431043,6.930975,0.654523\C,0,1.936324,1.501678,-2.632047\H,0,1.
 758071,1.552725,-3.699702\C,0,2.451318,0.324633,-2.031805\H,0,2.656619
 ,-0.538403,-2.655874\C,0,2.706619,0.249091,-0.676361\C,0,2.490218,1.33
 8916,0.223498\H,0,3.114009,-0.677166,-0.281791\B,0,2.956871,1.268071,1
 .719434\N,0,1.231287,4.7263,2.061581\C,0,1.097301,5.915501,2.878975\H,
 0,0.067189,6.305706,2.907516\H,0,1.393206,5.669489,3.900846\H,0,1.7621
 31,6.701094,2.516458\C,0,0.537047,3.577276,2.625416\H,0,0.943543,3.351
 851,3.6146\H,0,-0.543608,3.762322,2.721597\H,0,0.671173,2.698706,1.994
 682\C,0,3.813735,2.44557,2.305544\H,0,4.566396,2.768489,1.576185\C,0,2
 .51211,0.078275,2.644944\H,0,2.48062,-0.87743,2.108174\C,0,3.26908,-0.
 034333,3.975399\H,0,2.713709,-0.658485,4.682995\H,0,4.228614,-0.539154
 ,3.807138\C,0,4.442505,2.190041,3.684142\H,0,5.395548,1.661758,3.55627
 7\H,0,4.684052,3.137311,4.177404\C,0,3.547016,1.340309,4.589031\H,0,4.
 017069,1.221863,5.570604\H,0,2.594572,1.861384,4.759887\H,0,3.123347,3
 .306,2.353673\H,0,1.449964,0.301963,2.85022\\Version=AS64L-G16RevC.02\
 HF=-816.7634159\RMSD=8.636e-09\Dipole=-0.3317444,0.342499,0.5723795\Qu
 adrupole=-9.4161234,5.7210329,3.6950905,-4.7417366,0.5893018,6.1451764
 \PG=C01 [X(C19H22B1N1)]\\@
 The archive entry for this job was punched.


 I take a simple view of life: keep your eyes open and get on with it.
 -- Laurence Olivier
 Job cpu time:       0 days  2 hours 34 minutes 58.3 seconds.
 Elapsed time:       0 days  0 hours  1 minutes 31.4 seconds.
 File lengths (MBytes):  RWF=    342 Int=      0 D2E=      0 Chk=     24 Scr=      1
 Normal termination of Gaussian 16 at Thu Apr 11 14:55:29 2024.
