 Entering Gaussian System, Link 0=/ccc/products/gaussian-16-C.02/system/default/g16/g16
 Input=cyclo_dibenzofuran_chelpg.gjf
 Output=cyclo_dibenzofuran_chelpg.log
 Initial command:
 /ccc/products/gaussian-16-C.02/system/default/g16/l1.exe "/ccc/scratch/cont003/gen7343/penasfra/flp/b-n_flp/cyclo_dibenzofuran/reac/Gau-527957.inp" -scrdir="/ccc/scratch/cont003/gen7343/penasfra/flp/b-n_flp/cyclo_dibenzofuran/reac/"
 Entering Link 1 = /ccc/products/gaussian-16-C.02/system/default/g16/l1.exe PID=    528006.
  
 Copyright (c) 1988-2021, Gaussian, Inc.  All Rights Reserved.
  
 This is part of the Gaussian(R) 16 program.  It is based on
 the Gaussian(R) 09 system (copyright 2009, Gaussian, Inc.),
 the Gaussian(R) 03 system (copyright 2003, Gaussian, Inc.),
 the Gaussian(R) 98 system (copyright 1998, Gaussian, Inc.),
 the Gaussian(R) 94 system (copyright 1995, Gaussian, Inc.),
 the Gaussian 92(TM) system (copyright 1992, Gaussian, Inc.),
 the Gaussian 90(TM) system (copyright 1990, Gaussian, Inc.),
 the Gaussian 88(TM) system (copyright 1988, Gaussian, Inc.),
 the Gaussian 86(TM) system (copyright 1986, Carnegie Mellon
 University), and the Gaussian 82(TM) system (copyright 1983,
 Carnegie Mellon University). Gaussian is a federally registered
 trademark of Gaussian, Inc.
  
 This software contains proprietary and confidential information,
 including trade secrets, belonging to Gaussian, Inc.
  
 This software is provided under written license and may be
 used, copied, transmitted, or stored only in accord with that
 written license.
  
 The following legend is applicable only to US Government
 contracts under FAR:
  
                    RESTRICTED RIGHTS LEGEND
  
 Use, reproduction and disclosure by the US Government is
 subject to restrictions as set forth in subparagraphs (a)
 and (c) of the Commercial Computer Software - Restricted
 Rights clause in FAR 52.227-19.
  
 Gaussian, Inc.
 340 Quinnipiac St., Bldg. 40, Wallingford CT 06492
  
  
 ---------------------------------------------------------------
 Warning -- This program may not be used in any manner that
 competes with the business of Gaussian, Inc. or will provide
 assistance to any competitor of Gaussian, Inc.  The licensee
 of this program is prohibited from giving any competitor of
 Gaussian, Inc. access to this program.  By using this program,
 the user acknowledges that Gaussian, Inc. is engaged in the
 business of creating and licensing software in the field of
 computational chemistry and represents and warrants to the
 licensee that it is not a competitor of Gaussian, Inc. and that
 it will not use this program in any manner prohibited above.
 ---------------------------------------------------------------
  

 Cite this work as:
 Gaussian 16, Revision C.02,
 M. J. Frisch, G. W. Trucks, H. B. Schlegel, G. E. Scuseria, 
 M. A. Robb, J. R. Cheeseman, G. Scalmani, V. Barone, 
 G. A. Petersson, H. Nakatsuji, X. Li, M. Caricato, A. V. Marenich, 
 J. Bloino, B. G. Janesko, R. Gomperts, B. Mennucci, H. P. Hratchian, 
 J. V. Ortiz, A. F. Izmaylov, J. L. Sonnenberg, D. Williams-Young, 
 F. Ding, F. Lipparini, F. Egidi, J. Goings, B. Peng, A. Petrone, 
 T. Henderson, D. Ranasinghe, V. G. Zakrzewski, J. Gao, N. Rega, 
 G. Zheng, W. Liang, M. Hada, M. Ehara, K. Toyota, R. Fukuda, 
 J. Hasegawa, M. Ishida, T. Nakajima, Y. Honda, O. Kitao, H. Nakai, 
 T. Vreven, K. Throssell, J. A. Montgomery, Jr., J. E. Peralta, 
 F. Ogliaro, M. J. Bearpark, J. J. Heyd, E. N. Brothers, K. N. Kudin, 
 V. N. Staroverov, T. A. Keith, R. Kobayashi, J. Normand, 
 K. Raghavachari, A. P. Rendell, J. C. Burant, S. S. Iyengar, 
 J. Tomasi, M. Cossi, J. M. Millam, M. Klene, C. Adamo, R. Cammi, 
 J. W. Ochterski, R. L. Martin, K. Morokuma, O. Farkas, 
 J. B. Foresman, and D. J. Fox, Gaussian, Inc., Wallingford CT, 2019.
 
 ******************************************
 Gaussian 16:  AS64L-G16RevC.02  7-Dec-2021
                11-Apr-2024 
 ******************************************
 %nprocshared=128
 Will use up to  128 processors via shared memory.
 %mem=30GB
 %chk=cyclo_dibenzofuran_chelpg.chk
 ----------------------------------------------------------------------
 # wb97xd/genecp scrf=(solvent=toluene,pcm) nosymm pop=(chelpg) scfcyc=
 300
 ----------------------------------------------------------------------
 1/38=1,172=1/1;
 2/12=2,15=1,17=6,18=5,40=1/2;
 3/5=7,11=2,16=1,17=8,25=1,30=1,70=2201,72=13,74=-58/1,2,3;
 4//1;
 5/5=2,7=300,38=5,53=13/2;
 6/7=2,8=2,9=2,10=2,15=8,20=3,28=1/1,2;
 99/5=1,9=1/99;
 -------------------------
 cyclo_dibenzofuran_chelpg
 -------------------------
 Symbolic Z-matrix:
 Charge =  0 Multiplicity = 1
 C                     2.33085   2.27734  -0.04286 
 C                     2.1336    2.73382  -1.34942 
 O                     1.67635   3.07551   0.85269 
 C                     1.29516   3.91216  -1.23649 
 C                     1.06128   4.06185   0.12804 
 C                     0.71629   4.79365  -2.15101 
 C                     0.26421   5.07701   0.67698 
 C                    -0.08259   5.80089  -1.64195 
 H                     0.87987   4.68662  -3.21649 
 C                    -0.29894   5.9444   -0.26512 
 H                    -0.55305   6.50787  -2.31596 
 H                    -0.92446   6.76      0.07308 
 C                     2.71451   2.04049  -2.40764 
 H                     2.584     2.37585  -3.4304 
 C                     3.46218   0.90763  -2.11903 
 H                     3.92601   0.34961  -2.92425 
 C                     3.62057   0.47144  -0.80059 
 C                     3.06984   1.14313   0.30128 
 H                     4.21239  -0.42008  -0.62415 
 B                     3.31694   0.66739   1.77691 
 N                     0.02294   5.15579   2.05341 
 C                     1.19591   5.17021   2.92134 
 H                     1.72188   6.13661   2.87601 
 H                     0.87645   4.99899   3.9515 
 H                     1.88813   4.37821   2.64693 
 C                    -0.99232   6.09644   2.48348 
 H                    -1.19482   5.92643   3.54248 
 H                    -0.68658   7.14841   2.36036 
 H                    -1.91968   5.93348   1.93149 
 C                     3.23267   1.67163   2.98756 
 H                     3.53557   2.68475   2.70501 
 C                     3.53924  -0.85803   2.09573 
 H                     3.99306  -1.4212    1.27383 
 C                     4.24247  -1.15692   3.4277 
 H                     4.12506  -2.21263   3.69311 
 H                     5.32057  -0.98655   3.31392 
 C                     3.95385   1.21304   4.26367 
 H                     5.03217   1.38228   4.14939 
 H                     3.63874   1.82058   5.11841 
 C                     3.72626  -0.26954   4.5614 
 H                     4.21999  -0.5408    5.5001 
 H                     2.6528   -0.4522    4.70695 
 H                     2.50354  -1.24114   2.14897 
 H                     2.15079   1.7579    3.18973 
 
                          Input orientation:                          
 ---------------------------------------------------------------------
 Center     Atomic      Atomic             Coordinates (Angstroms)
 Number     Number       Type             X           Y           Z
 ---------------------------------------------------------------------
      1          6           0        2.330851    2.277342   -0.042861
      2          6           0        2.133601    2.733820   -1.349424
      3          8           0        1.676350    3.075507    0.852691
      4          6           0        1.295159    3.912164   -1.236494
      5          6           0        1.061276    4.061850    0.128035
      6          6           0        0.716293    4.793654   -2.151007
      7          6           0        0.264212    5.077009    0.676983
      8          6           0       -0.082588    5.800894   -1.641949
      9          1           0        0.879871    4.686616   -3.216493
     10          6           0       -0.298937    5.944404   -0.265120
     11          1           0       -0.553047    6.507865   -2.315957
     12          1           0       -0.924462    6.760003    0.073078
     13          6           0        2.714510    2.040495   -2.407638
     14          1           0        2.583996    2.375854   -3.430400
     15          6           0        3.462179    0.907625   -2.119034
     16          1           0        3.926012    0.349611   -2.924252
     17          6           0        3.620566    0.471440   -0.800585
     18          6           0        3.069837    1.143127    0.301278
     19          1           0        4.212386   -0.420077   -0.624151
     20          5           0        3.316941    0.667386    1.776914
     21          7           0        0.022942    5.155786    2.053409
     22          6           0        1.195908    5.170207    2.921338
     23          1           0        1.721875    6.136613    2.876008
     24          1           0        0.876453    4.998994    3.951496
     25          1           0        1.888128    4.378206    2.646934
     26          6           0       -0.992320    6.096442    2.483481
     27          1           0       -1.194815    5.926426    3.542477
     28          1           0       -0.686580    7.148411    2.360360
     29          1           0       -1.919684    5.933483    1.931489
     30          6           0        3.232667    1.671634    2.987560
     31          1           0        3.535570    2.684754    2.705005
     32          6           0        3.539244   -0.858034    2.095728
     33          1           0        3.993059   -1.421201    1.273830
     34          6           0        4.242472   -1.156923    3.427700
     35          1           0        4.125059   -2.212628    3.693111
     36          1           0        5.320565   -0.986554    3.313923
     37          6           0        3.953852    1.213041    4.263672
     38          1           0        5.032173    1.382282    4.149393
     39          1           0        3.638738    1.820581    5.118409
     40          6           0        3.726257   -0.269541    4.561404
     41          1           0        4.219988   -0.540795    5.500098
     42          1           0        2.652804   -0.452196    4.706954
     43          1           0        2.503538   -1.241144    2.148969
     44          1           0        2.150789    1.757897    3.189734
 ---------------------------------------------------------------------
                    Distance matrix (angstroms):
                    1          2          3          4          5
     1  C    0.000000
     2  C    1.397994   0.000000
     3  O    1.366548   2.274893   0.000000
     4  C    2.273777   1.450597   2.282541   0.000000
     5  C    2.196701   2.257527   1.369786   1.392497   0.000000
     6  C    3.658265   2.625683   3.591092   1.395867   2.418384
     7  C    3.553492   3.618214   2.455813   2.465991   1.402570
     8  C    4.560394   3.795261   4.092044   2.372737   2.732314
     9  H    4.240505   2.978456   4.448405   2.166249   3.407214
    10  C    4.518023   4.171427   3.658118   2.759476   2.355581
    11  H    5.601889   4.732407   5.176062   3.364338   3.816035
    12  H    5.541187   5.252182   4.576847   3.840818   3.350553
    13  C    2.407376   1.392111   3.574741   2.624744   3.639876
    14  H    3.398412   2.159041   4.433757   2.972301   4.221815
    15  C    2.732494   2.385877   4.089015   3.808163   4.556620
    16  H    3.816163   3.373021   5.172696   4.739377   5.594988
    17  C    2.344950   2.762364   3.646157   4.175658   4.505923
    18  C    1.396773   2.476219   2.445395   3.630674   3.547291
    19  H    3.339782   3.846353   4.564170   5.258659   5.530185
    20  B    2.622196   3.929940   3.056922   4.867937   4.396500
    21  N    4.243375   4.679751   2.915998   3.740133   2.445792
    22  C    4.294559   5.005463   2.982934   4.345123   3.008176
    23  H    4.876948   5.440845   3.669640   4.694990   3.506050
    24  H    5.047529   5.900101   3.733930   5.317119   3.940971
    25  H    3.441603   4.328411   2.227371   3.955985   2.669947
    26  C    5.657861   5.980783   4.348255   4.882811   3.728934
    27  H    6.212953   6.723227   4.858629   5.752894   4.497222
    28  H    6.213507   6.419076   4.944194   5.228570   4.191078
    29  H    5.944112   6.118117   4.718399   4.945408   3.954944
    30  C    3.219255   4.598436   2.991763   5.159122   4.313346
    31  H    3.027887   4.290259   2.653385   4.696956   3.828746
    32  C    3.983009   5.171684   4.526396   6.236538   5.849564
    33  H    4.263312   5.253879   5.075912   6.482683   6.322345
    34  C    5.243402   6.511999   5.579347   7.492463   6.945746
    35  H    6.110360   7.338965   6.482942   8.355981   7.840000
    36  H    5.555124   6.763485   5.986510   7.804334   7.333335
    37  C    4.723674   6.093679   4.504507   6.678753   5.795360
    38  H    5.066879   6.361239   4.999680   7.026618   6.254553
    39  H    5.343960   6.703156   4.860263   7.088856   6.047349
    40  C    5.443623   6.818696   5.398705   7.550663   6.746690
    41  H    6.498856   7.873504   6.414525   8.588663   7.747313
    42  H    5.487693   6.862943   5.315402   7.497694   6.623902
    43  H    4.148938   5.308102   4.582363   6.283162   5.855428
    44  H    3.279011   4.642917   2.724511   4.996445   3.983621
                    6          7          8          9         10
     6  C    0.000000
     7  C    2.877880   0.000000
     8  C    1.382709   2.453920   0.000000
     9  H    1.083271   3.961136   2.155721   0.000000
    10  C    2.431355   1.398953   1.401092   3.417926   0.000000
    11  H    2.139381   3.416570   1.084171   2.486195   2.141960
    12  H    3.391926   2.147118   2.137746   4.286704   1.082063
    13  C    3.411541   4.973858   4.748751   3.319955   5.376965
    14  H    3.312238   5.435828   4.694691   2.879135   5.573585
    15  C    4.758375   5.952182   6.061111   4.706751   6.553788
    16  H    5.536219   6.980399   6.886920   5.307918   7.498192
    17  C    5.379589   5.887239   6.544030   5.578147   6.752967
    18  C    4.987907   4.846454   5.950522   5.452245   5.892513
    19  H    6.460414   6.891951   7.627791   6.626025   7.809453
    20  B    6.262429   5.474831   7.042608   6.857670   6.715013
    21  N    4.276563   1.399631   3.752729   5.359694   2.470041
    22  C    5.108865   2.431846   4.780785   6.164958   3.603811
    23  H    5.299586   2.843106   4.876549   6.319021   3.739961
    24  H    6.108057   3.332171   5.731442   7.174793   4.478302
    25  H    4.956413   2.646911   4.929734   5.957472   3.964377
    26  C    5.108336   2.425191   4.234871   6.162987   2.838785
    27  H    6.111568   3.325857   5.303874   7.178100   3.911613
    28  H    5.278766   2.833455   4.266039   6.294084   2.914283
    29  H    4.991429   2.660213   4.020194   5.991152   2.729841
    30  C    6.517977   5.074157   7.033780   7.288075   6.427186
    31  H    5.998053   4.531836   6.457353   6.791489   5.843835
    32  C    7.612187   6.925562   8.451581   8.126198   8.159559
    33  H    7.816081   7.515801   8.790411   8.195143   8.662663
    34  C    8.886241   7.890178   9.634246   9.465692   9.202726
    35  H    9.739681   8.783050  10.506364  10.289482  10.088434
    36  H    9.191060   8.323879   9.991205   9.723731   9.613872
    37  C    8.028118   6.434907   8.498094   8.801588   7.809095
    38  H    8.364169   6.960035   8.900818   9.078354   8.289850
    39  H    8.379991   6.458948   8.682949   9.235589   7.841785
    40  C    8.930414   7.460568   9.478347   9.651999   8.838022
    41  H    9.963515   8.394660  10.475591  10.698653   9.783467
    42  H    8.848765   7.246940   9.321592   9.608938   8.622690
    43  H    7.622521   6.862972   8.405320   8.158604   8.081695
    44  H    6.308495   4.570514   6.684232   7.157679   5.955167
                   11         12         13         14         15
    11  H    0.000000
    12  H    2.430846   0.000000
    13  C    5.535587   6.455217   0.000000
    14  H    5.306273   6.618489   1.084224   0.000000
    15  C    6.893730   7.635333   1.387694   2.155593   0.000000
    16  H    7.639115   8.579290   2.143296   2.482510   1.083927
    17  C    7.493586   7.808111   2.421877   3.408401   1.397731
    18  C    6.982523   6.896071   2.875718   3.959934   2.463190
    19  H    8.577176   8.855895   3.388049   4.282980   2.135481
    20  B    8.114160   7.616596   4.445090   5.529212   3.906049
    21  N    4.609907   2.718970   6.070463   6.660269   6.876373
    22  C    5.681323   3.890502   6.363901   7.076706   6.979322
    23  H    5.680634   3.904886   6.758729   7.393060   7.437837
    24  H    6.603115   4.624562   7.250500   8.018039   7.763801
    25  H    5.926641   4.495370   5.629964   6.436430   6.102214
    26  C    4.837027   2.500992   7.356245   7.849000   8.243150
    27  H    5.922093   3.578361   8.110928   8.689476   8.884181
    28  H    4.721872   2.332189   7.771231   8.185772   8.730669
    29  H    4.498712   2.264353   7.447089   7.854280   8.404191
    30  C    8.114681   7.188006   5.432560   6.488984   5.168529
    31  H    7.519510   6.589885   5.218077   6.216438   5.141491
    32  C    9.511376   9.058161   5.418668   6.473687   4.570307
    33  H    9.819559   9.620599   5.212603   6.207485   4.149312
    34  C   10.711469  10.031371   6.827102   7.890792   5.969713
    35  H   11.577589  10.913771   7.569534   8.612401   6.629964
    36  H   11.061699  10.464826   6.977880   8.017511   6.046365
    37  C    9.572817   8.492809   6.835717   7.901100   6.408897
    38  H    9.963284   9.000985   6.985661   8.027080   6.479457
    39  H    9.737119   8.406905   7.585772   8.631509   7.296934
    40  C   10.561428   9.549280   7.411305   8.495399   6.788498
    41  H   11.556651  10.450816   8.453509   9.536095   7.792520
    42  H   10.394287   9.288996   7.538882   8.615053   7.007019
    43  H    9.451212   8.948679   5.619282   6.649700   4.873608
    44  H    7.757935   6.647690   5.632781   6.663011   5.534051
                   16         17         18         19         20
    16  H    0.000000
    17  C    2.148977   0.000000
    18  C    3.430269   1.403057   0.000000
    19  H    2.442313   1.084519   2.146030   0.000000
    20  B    4.751096   2.602707   1.569997   2.783794   0.000000
    21  N    7.944204   6.559823   5.334319   7.470677   5.574281
    22  C    8.053728   6.466072   5.156908   7.274676   5.107238
    23  H    8.484729   7.015451   5.777641   7.838619   5.802128
    24  H    8.842651   7.114153   5.744801   7.837814   5.426566
    25  H    7.170820   5.490861   4.167046   6.255053   4.070458
    26  C    9.298367   7.981507   6.767456   8.900076   6.967325
    27  H    9.957024   8.473898   7.181405   9.320768   7.150570
    28  H    9.768665   8.551317   7.376579   9.496799   7.640175
    29  H    9.430271   8.245757   7.106365   9.192459   7.428184
    30  C    6.097376   3.992615   2.742616   4.287139   1.575208
    31  H    6.106871   4.146703   2.893341   4.602318   2.231351
    32  C    5.177663   3.187906   2.728560   2.835960   1.574156
    33  H    4.556771   2.832673   2.893782   2.157008   2.252204
    34  C    6.535831   4.573481   4.054604   4.118415   2.628651
    35  H    7.098886   5.258521   4.886626   4.675427   3.552372
    36  H    6.530310   4.684540   4.321730   4.130059   3.018679
    37  C    7.239650   5.129108   4.060411   5.159915   2.624378
    38  H    7.233703   5.227289   4.326193   5.167908   3.013595
    39  H    8.181117   6.070832   4.897688   6.190849   3.549507
    40  C    7.513874   5.413977   4.535988   5.210467   2.966270
    41  H    8.476374   6.409566   5.584458   6.125443   4.017125
    42  H    7.778127   5.667685   4.704142   5.554638   3.206193
    43  H    5.503772   3.588950   3.069105   3.359242   2.107732
    44  H    6.520392   4.442731   3.092858   4.851749   2.131944
                   21         22         23         24         25
    21  N    0.000000
    22  C    1.459232   0.000000
    23  H    2.127220   1.101198   0.000000
    24  H    2.087055   1.092058   1.779210   0.000000
    25  H    2.106139   1.087075   1.781042   1.763731   0.000000
    26  C    1.449328   2.416190   2.742726   2.617589   3.357980
    27  H    2.072231   2.583261   2.999240   2.305987   3.564200
    28  H    2.137334   2.787786   2.662759   3.097544   3.792793
    29  H    2.096061   3.356979   3.767536   3.573805   4.174947
    30  C    4.828487   4.048801   4.714973   4.189540   3.041273
    31  H    4.343861   3.420277   3.903084   3.739031   2.363306
    32  C    6.966506   6.520164   7.268889   6.696201   5.517991
    33  H    7.721809   7.347448   8.052689   7.622469   6.320544
    34  C    7.716437   7.040634   7.736501   7.035607   6.065491
    35  H    8.591246   7.980088   8.726556   7.913766   7.038284
    36  H    8.208657   7.421093   7.992612   7.482207   6.403682
    37  C    5.990205   5.006723   5.581119   4.888893   4.110879
    38  H    6.612479   5.529324   5.931547   5.512692   4.595428
    39  H    5.795843   4.691965   5.227892   4.369693   3.964123
    40  C    7.031270   6.219593   6.920760   6.020866   5.352146
    41  H    7.870571   6.957773   7.596986   6.653319   6.146112
    42  H    6.738467   6.076379   6.901550   5.782872   5.306712
    43  H    6.861720   6.588769   7.454588   6.695956   5.674839
    44  H    4.167087   3.553547   4.410844   3.564958   2.688799
                   26         27         28         29         30
    26  C    0.000000
    27  H    1.091505   0.000000
    28  H    1.102395   1.774528   0.000000
    29  H    1.091446   1.766569   1.783403   0.000000
    30  C    6.138692   6.165532   6.763798   6.769443   0.000000
    31  H    5.673665   5.795372   6.153825   6.396277   1.094532
    32  C    8.309643   8.398410   9.057085   8.715020   2.699736
    33  H    9.101221   9.276229   9.824348   9.459621   3.616724
    34  C    8.994771   8.930347   9.716653   9.512343   3.035484
    35  H    9.833179   9.724605  10.609295  10.295696   4.047426
    36  H    9.524231   9.502195  10.157398  10.110353   3.395850
    37  C    7.175047   7.017471   7.770767   7.887970   1.535864
    38  H    7.828990   7.732591   8.315829   8.600049   2.161435
    39  H    6.831730   6.534888   7.396011   7.613703   2.174304
    40  C    8.191976   7.977792   8.907510   8.790370   2.547308
    41  H    8.962201   8.658944   9.646567   9.609725   3.490343
    42  H    7.817635   7.539695   8.627121   8.329931   2.793423
    43  H    8.134684   8.184970   8.978094   8.431338   3.117553
    44  H    5.403786   5.356690   6.147859   5.965522   1.103982
                   31         32         33         34         35
    31  H    0.000000
    32  C    3.594799   0.000000
    33  H    4.372233   1.094816   0.000000
    34  C    3.972465   1.535583   2.184309   0.000000
    35  H    5.030726   2.174796   2.548863   1.094871   0.000000
    36  H    4.127407   2.161856   2.472482   1.097386   1.753931
    37  C    2.184111   3.026753   3.984962   2.529601   3.477076
    38  H    2.454080   3.386059   4.148269   2.755364   3.735562
    39  H    2.565533   4.039985   5.041377   3.476855   4.305201
    40  C    3.494344   2.541821   3.493658   1.529447   2.165309
    41  H    4.322631   3.486228   4.322956   2.162164   2.463583
    42  H    3.824596   2.787289   3.810721   2.158744   2.508891
    43  H    4.097187   1.105574   1.736940   2.160124   2.440796
    44  H    1.735409   3.157175   4.143828   3.595545   4.462757
                   36         37         38         39         40
    36  H    0.000000
    37  C    2.758287   0.000000
    38  H    2.528352   1.097487   0.000000
    39  H    3.736940   1.094978   1.752929   0.000000
    40  C    2.147588   1.529213   2.145621   2.164838   0.000000
    41  H    2.487837   2.162295   2.486418   2.461633   1.094758
    42  H    3.056636   2.159222   3.055746   2.511350   1.098567
    43  H    3.059015   3.549423   4.156688   4.413662   2.873830
    44  H    4.194629   2.168236   3.060132   2.436741   2.911028
                   41         42         43         44
    41  H    0.000000
    42  H    1.758691   0.000000
    43  H    3.829720   2.681046   0.000000
    44  H    3.860486   2.727359   3.194037   0.000000
 Symmetry turned off by external request.
 Stoichiometry    C19H22BNO
 Framework group  C1[X(C19H22BNO)]
 Deg. of freedom   126
 Full point group                 C1      NOp   1
 Rotational constants (GHZ):           0.4219102           0.2016815           0.1402251
 General basis read from cards:  (5D, 7F)
 ======================================================================================================
                                       Pseudopotential Parameters
 ======================================================================================================
  Center     Atomic      Valence      Angular      Power
  Number     Number     Electrons     Momentum     of R      Exponent        Coefficient   SO-Coeffient
 ======================================================================================================
    1          6
                                   No pseudopotential on this center.
    2          6
                                   No pseudopotential on this center.
    3          8
                                   No pseudopotential on this center.
    4          6
                                   No pseudopotential on this center.
    5          6
                                   No pseudopotential on this center.
    6          6
                                   No pseudopotential on this center.
    7          6
                                   No pseudopotential on this center.
    8          6
                                   No pseudopotential on this center.
    9          1
                                   No pseudopotential on this center.
   10          6
                                   No pseudopotential on this center.
   11          1
                                   No pseudopotential on this center.
   12          1
                                   No pseudopotential on this center.
   13          6
                                   No pseudopotential on this center.
   14          1
                                   No pseudopotential on this center.
   15          6
                                   No pseudopotential on this center.
   16          1
                                   No pseudopotential on this center.
   17          6
                                   No pseudopotential on this center.
   18          6
                                   No pseudopotential on this center.
   19          1
                                   No pseudopotential on this center.
   20          5
                                   No pseudopotential on this center.
   21          7
                                   No pseudopotential on this center.
   22          6
                                   No pseudopotential on this center.
   23          1
                                   No pseudopotential on this center.
   24          1
                                   No pseudopotential on this center.
   25          1
                                   No pseudopotential on this center.
   26          6
                                   No pseudopotential on this center.
   27          1
                                   No pseudopotential on this center.
   28          1
                                   No pseudopotential on this center.
   29          1
                                   No pseudopotential on this center.
   30          6
                                   No pseudopotential on this center.
   31          1
                                   No pseudopotential on this center.
   32          6
                                   No pseudopotential on this center.
   33          1
                                   No pseudopotential on this center.
   34          6
                                   No pseudopotential on this center.
   35          1
                                   No pseudopotential on this center.
   36          1
                                   No pseudopotential on this center.
   37          6
                                   No pseudopotential on this center.
   38          1
                                   No pseudopotential on this center.
   39          1
                                   No pseudopotential on this center.
   40          6
                                   No pseudopotential on this center.
   41          1
                                   No pseudopotential on this center.
   42          1
                                   No pseudopotential on this center.
   43          1
                                   No pseudopotential on this center.
   44          1
                                   No pseudopotential on this center.
 ======================================================================================================
   638 basis functions,   990 primitive gaussians,   660 cartesian basis functions
    78 alpha electrons       78 beta electrons
       nuclear repulsion energy      1722.2064084245 Hartrees.
 NAtoms=   44 NActive=   44 NUniq=   44 SFac= 1.00D+00 NAtFMM=   60 NAOKFM=F Big=F
 Integral buffers will be    131072 words long.
 Raffenetti 2 integral format.
 Two-electron integral symmetry is turned off.
 Nuclear repulsion after empirical dispersion term =     1722.1709609429 Hartrees.
 ------------------------------------------------------------------------------
 Polarizable Continuum Model (PCM)
 =================================
 Model                : PCM.
 Atomic radii         : UFF (Universal Force Field).
 Polarization charges : Total charges.
 Charge compensation  : None.
 Solution method      : On-the-fly selection.
 Cavity type          : Scaled VdW (van der Waals Surface) (Alpha=1.100).
 Cavity algorithm     : GePol (No added spheres)
                        Default sphere list used, NSphG=   44.
                        Lebedev-Laikov grids with approx.  5.0 points / Ang**2.
                        Smoothing algorithm: York/Karplus (Gamma=1.0000).
                        Polarization charges: spherical gaussians, with
                                              point-specific exponents (IZeta= 3).
                        Self-potential: point-specific (ISelfS= 7).
                        Self-field    : sphere-specific E.n sum rule (ISelfD= 2).
 Solvent              : Toluene, Eps=   2.374100 Eps(inf)=   2.238315
 ------------------------------------------------------------------------------
 One-electron integrals computed using PRISM.
   1 Symmetry operations used in ECPInt.
 ECPInt:  NShTT=   29403 NPrTT=   97482 LenC2=   25827 LenP2D=   59172.
 LDataN:  DoStor=T MaxTD1= 4 Len=   56
 Number of processors reduced to  73 by ecpmxn.
 NBasis=   638 RedAO= T EigKep=  1.58D-06  NBF=   638
 NBsUse=   631 1.00D-06 EigRej=  6.99D-07 NBFU=   631
 ExpMin= 3.15D-02 ExpMax= 8.59D+03 ExpMxC= 1.30D+03 IAcc=3 IRadAn=         5 AccDes= 0.00D+00
 Harris functional with IExCor= 4639 and IRadAn=       5 diagonalized for initial guess.
 HarFok:  IExCor= 4639 AccDes= 0.00D+00 IRadAn=         5 IDoV= 1 UseB2=F ITyADJ=14
 ICtDFT=  3500011 ScaDFX=  1.000000  1.000000  1.000000  1.000000
 FoFCou: FMM=F IPFlag=           0 FMFlag=      100000 FMFlg1=           0
         NFxFlg=           0 DoJE=T BraDBF=F KetDBF=T FulRan=T
         wScrn=  0.000000 ICntrl=       500 IOpCl=  0 I1Cent=   200000004 NGrid=           0
         NMat0=    1 NMatS0=      1 NMatT0=    0 NMatD0=    1 NMtDS0=    0 NMtDT0=    0
 Symmetry not used in FoFCou.
 Requested convergence on RMS density matrix=1.00D-08 within 300 cycles.
 Requested convergence on MAX density matrix=1.00D-06.
 Requested convergence on             energy=1.00D-06.
 No special actions if energy rises.
 Inv3:  Mode=1 IEnd=    26766507.
 Iteration    1 A*A^-1 deviation from unit magnitude is 5.77D-15 for   2972.
 Iteration    1 A*A^-1 deviation from orthogonality  is 3.04D-15 for   2971   2402.
 Iteration    1 A^-1*A deviation from unit magnitude is 5.77D-15 for   2972.
 Iteration    1 A^-1*A deviation from orthogonality  is 1.38D-15 for   2979   2913.
 Error on total polarization charges =  0.01202
 SCF Done:  E(RwB97XD) =  -892.059123791     A.U. after   16 cycles
            NFock= 16  Conv=0.49D-08     -V/T= 2.0044

 **********************************************************************

            Population analysis using the SCF Density.

 **********************************************************************

 Alpha  occ. eigenvalues --  -19.31306 -14.44873 -10.35208 -10.34678 -10.33487
 Alpha  occ. eigenvalues --  -10.30749 -10.30303 -10.30166 -10.30045 -10.30009
 Alpha  occ. eigenvalues --  -10.29685 -10.28980 -10.28943 -10.28865 -10.28789
 Alpha  occ. eigenvalues --  -10.27909 -10.27184 -10.27073 -10.26933 -10.25409
 Alpha  occ. eigenvalues --  -10.25083  -6.84081  -1.22176  -1.05230  -0.97137
 Alpha  occ. eigenvalues --   -0.95854  -0.90684  -0.88946  -0.86754  -0.84256
 Alpha  occ. eigenvalues --   -0.83506  -0.83083  -0.81215  -0.78329  -0.76367
 Alpha  occ. eigenvalues --   -0.73335  -0.72103  -0.69676  -0.69117  -0.66813
 Alpha  occ. eigenvalues --   -0.65201  -0.62680  -0.61324  -0.59740  -0.57592
 Alpha  occ. eigenvalues --   -0.56776  -0.56490  -0.55566  -0.54844  -0.54709
 Alpha  occ. eigenvalues --   -0.54237  -0.52975  -0.51341  -0.51113  -0.50965
 Alpha  occ. eigenvalues --   -0.49845  -0.48625  -0.48299  -0.47591  -0.46446
 Alpha  occ. eigenvalues --   -0.46148  -0.45709  -0.45343  -0.44964  -0.44892
 Alpha  occ. eigenvalues --   -0.44603  -0.43679  -0.43135  -0.41635  -0.41273
 Alpha  occ. eigenvalues --   -0.39958  -0.38261  -0.36880  -0.36045  -0.35020
 Alpha  occ. eigenvalues --   -0.32081  -0.30066  -0.27697
 Alpha virt. eigenvalues --    0.00613   0.03850   0.03932   0.04535   0.04660
 Alpha virt. eigenvalues --    0.05556   0.05613   0.05726   0.06433   0.06666
 Alpha virt. eigenvalues --    0.06997   0.07068   0.07229   0.08029   0.08421
 Alpha virt. eigenvalues --    0.08655   0.08810   0.08952   0.09081   0.09691
 Alpha virt. eigenvalues --    0.10288   0.10729   0.11099   0.11369   0.11650
 Alpha virt. eigenvalues --    0.11737   0.12135   0.12891   0.13483   0.13691
 Alpha virt. eigenvalues --    0.14138   0.14480   0.15129   0.15450   0.15647
 Alpha virt. eigenvalues --    0.15838   0.16123   0.16234   0.16552   0.16747
 Alpha virt. eigenvalues --    0.17121   0.17286   0.17465   0.17728   0.18045
 Alpha virt. eigenvalues --    0.18517   0.18632   0.18828   0.18860   0.19361
 Alpha virt. eigenvalues --    0.19609   0.19931   0.20070   0.20361   0.20501
 Alpha virt. eigenvalues --    0.20673   0.20836   0.20914   0.21242   0.21396
 Alpha virt. eigenvalues --    0.21745   0.21785   0.22105   0.22379   0.22518
 Alpha virt. eigenvalues --    0.22733   0.22952   0.23219   0.23672   0.23695
 Alpha virt. eigenvalues --    0.24286   0.24492   0.24745   0.24919   0.25085
 Alpha virt. eigenvalues --    0.25510   0.25579   0.25944   0.26281   0.26358
 Alpha virt. eigenvalues --    0.26484   0.26913   0.27262   0.27865   0.28127
 Alpha virt. eigenvalues --    0.28364   0.28897   0.28960   0.29153   0.29267
 Alpha virt. eigenvalues --    0.29439   0.29755   0.30382   0.30638   0.30749
 Alpha virt. eigenvalues --    0.31155   0.31560   0.31831   0.32028   0.32147
 Alpha virt. eigenvalues --    0.32816   0.32927   0.33419   0.33599   0.33967
 Alpha virt. eigenvalues --    0.34219   0.34530   0.34648   0.35011   0.35174
 Alpha virt. eigenvalues --    0.35454   0.36004   0.36148   0.36515   0.36737
 Alpha virt. eigenvalues --    0.37106   0.37315   0.37593   0.38196   0.38428
 Alpha virt. eigenvalues --    0.38769   0.39239   0.39354   0.39858   0.40070
 Alpha virt. eigenvalues --    0.40491   0.40655   0.41152   0.41625   0.41797
 Alpha virt. eigenvalues --    0.42186   0.42368   0.42661   0.43120   0.43654
 Alpha virt. eigenvalues --    0.44063   0.44332   0.44884   0.45038   0.45714
 Alpha virt. eigenvalues --    0.46227   0.46755   0.47117   0.47783   0.48188
 Alpha virt. eigenvalues --    0.48361   0.49453   0.50189   0.50905   0.53045
 Alpha virt. eigenvalues --    0.53219   0.54905   0.55631   0.55897   0.56465
 Alpha virt. eigenvalues --    0.58301   0.58896   0.59616   0.59731   0.60564
 Alpha virt. eigenvalues --    0.61671   0.62078   0.62497   0.63271   0.63659
 Alpha virt. eigenvalues --    0.63994   0.65009   0.65255   0.65840   0.66219
 Alpha virt. eigenvalues --    0.66648   0.66863   0.67438   0.68011   0.68252
 Alpha virt. eigenvalues --    0.68573   0.69185   0.69262   0.70402   0.70697
 Alpha virt. eigenvalues --    0.70989   0.71534   0.72318   0.72557   0.73000
 Alpha virt. eigenvalues --    0.73491   0.74143   0.74472   0.75152   0.75435
 Alpha virt. eigenvalues --    0.75926   0.76211   0.76869   0.76967   0.77417
 Alpha virt. eigenvalues --    0.77696   0.78059   0.78841   0.79279   0.80528
 Alpha virt. eigenvalues --    0.80748   0.81176   0.81496   0.82051   0.82592
 Alpha virt. eigenvalues --    0.83128   0.83865   0.84139   0.84471   0.84842
 Alpha virt. eigenvalues --    0.85702   0.86334   0.86720   0.86941   0.87487
 Alpha virt. eigenvalues --    0.87834   0.87943   0.88365   0.88751   0.88903
 Alpha virt. eigenvalues --    0.89251   0.89966   0.90531   0.91830   0.92390
 Alpha virt. eigenvalues --    0.92988   0.93695   0.95014   0.95515   0.96308
 Alpha virt. eigenvalues --    0.96389   0.97157   0.98108   0.98688   0.99203
 Alpha virt. eigenvalues --    0.99707   1.00677   1.01216   1.01935   1.02805
 Alpha virt. eigenvalues --    1.04024   1.04648   1.05162   1.05555   1.06948
 Alpha virt. eigenvalues --    1.06993   1.07676   1.09389   1.10831   1.11070
 Alpha virt. eigenvalues --    1.11842   1.11863   1.13228   1.13589   1.14199
 Alpha virt. eigenvalues --    1.15101   1.15711   1.16329   1.17425   1.18218
 Alpha virt. eigenvalues --    1.19740   1.21085   1.21222   1.22099   1.22577
 Alpha virt. eigenvalues --    1.22787   1.23925   1.24806   1.26483   1.27177
 Alpha virt. eigenvalues --    1.29568   1.30496   1.32981   1.33134   1.35001
 Alpha virt. eigenvalues --    1.36017   1.36768   1.37593   1.38862   1.39898
 Alpha virt. eigenvalues --    1.39926   1.43346   1.44175   1.44800   1.46184
 Alpha virt. eigenvalues --    1.47281   1.47970   1.49396   1.51871   1.52214
 Alpha virt. eigenvalues --    1.53256   1.53546   1.55226   1.55903   1.58878
 Alpha virt. eigenvalues --    1.59143   1.60753   1.61311   1.61678   1.62841
 Alpha virt. eigenvalues --    1.63675   1.64004   1.64911   1.65343   1.66267
 Alpha virt. eigenvalues --    1.66749   1.67448   1.67681   1.68544   1.69024
 Alpha virt. eigenvalues --    1.69088   1.70475   1.70852   1.71970   1.72481
 Alpha virt. eigenvalues --    1.73807   1.73980   1.74376   1.74696   1.75297
 Alpha virt. eigenvalues --    1.76099   1.76910   1.77381   1.77571   1.78252
 Alpha virt. eigenvalues --    1.78534   1.79855   1.80479   1.81051   1.81792
 Alpha virt. eigenvalues --    1.82734   1.83189   1.84519   1.84792   1.85392
 Alpha virt. eigenvalues --    1.86610   1.87767   1.88514   1.89128   1.90120
 Alpha virt. eigenvalues --    1.90406   1.90902   1.91514   1.92784   1.92946
 Alpha virt. eigenvalues --    1.93131   1.94529   1.95403   1.96156   1.96953
 Alpha virt. eigenvalues --    1.97563   1.98857   1.99169   2.00105   2.00564
 Alpha virt. eigenvalues --    2.01210   2.01960   2.02804   2.03223   2.05434
 Alpha virt. eigenvalues --    2.06122   2.06514   2.06958   2.08565   2.09269
 Alpha virt. eigenvalues --    2.10516   2.10727   2.12179   2.12556   2.13974
 Alpha virt. eigenvalues --    2.15543   2.16574   2.17368   2.17626   2.18118
 Alpha virt. eigenvalues --    2.20159   2.22586   2.24315   2.25590   2.26356
 Alpha virt. eigenvalues --    2.28054   2.28454   2.29249   2.30363   2.31170
 Alpha virt. eigenvalues --    2.31971   2.32560   2.33700   2.34905   2.36219
 Alpha virt. eigenvalues --    2.37120   2.38212   2.38804   2.40382   2.42569
 Alpha virt. eigenvalues --    2.43506   2.44106   2.45684   2.46979   2.47846
 Alpha virt. eigenvalues --    2.50047   2.50963   2.52238   2.52552   2.53643
 Alpha virt. eigenvalues --    2.56337   2.57439   2.59111   2.59522   2.60755
 Alpha virt. eigenvalues --    2.61990   2.62590   2.63743   2.65256   2.65536
 Alpha virt. eigenvalues --    2.66485   2.66923   2.67937   2.68521   2.68899
 Alpha virt. eigenvalues --    2.71204   2.72138   2.73516   2.74541   2.76014
 Alpha virt. eigenvalues --    2.76431   2.77065   2.78575   2.79494   2.79870
 Alpha virt. eigenvalues --    2.81346   2.82103   2.82279   2.82476   2.83150
 Alpha virt. eigenvalues --    2.83632   2.84473   2.85099   2.86704   2.87158
 Alpha virt. eigenvalues --    2.87846   2.88097   2.88481   2.89274   2.89860
 Alpha virt. eigenvalues --    2.90201   2.91019   2.91146   2.91648   2.92448
 Alpha virt. eigenvalues --    2.93442   2.93941   2.95628   2.96937   2.97648
 Alpha virt. eigenvalues --    2.98057   2.98631   3.00530   3.01753   3.03282
 Alpha virt. eigenvalues --    3.03434   3.05217   3.05764   3.07002   3.08373
 Alpha virt. eigenvalues --    3.10312   3.14395   3.14831   3.16005   3.17358
 Alpha virt. eigenvalues --    3.18948   3.21148   3.21815   3.24925   3.27179
 Alpha virt. eigenvalues --    3.27431   3.28706   3.31052   3.32219   3.33652
 Alpha virt. eigenvalues --    3.35463   3.38820   3.43215   3.43990   3.49790
 Alpha virt. eigenvalues --    3.51712   3.53378   3.53522   3.55156   3.61916
 Alpha virt. eigenvalues --    3.64199   3.65627   3.67064   3.69184   3.72531
 Alpha virt. eigenvalues --    3.73606   3.77667   3.78968   3.80856   3.86215
 Alpha virt. eigenvalues --    3.87176   3.88412   3.90771   3.92348   3.93612
 Alpha virt. eigenvalues --    3.94113   3.94695   3.94989   3.98111   4.05044
 Alpha virt. eigenvalues --    4.10005   4.13717   4.15614   4.16852   4.22730
 Alpha virt. eigenvalues --    4.23887   4.26949   4.28256   4.35016   4.37478
 Alpha virt. eigenvalues --    4.43293   4.45534   4.47850   4.65922   4.92546
 Alpha virt. eigenvalues --    4.95725   4.99951   5.15012   5.16246   5.65927
 Alpha virt. eigenvalues --    6.07496  14.86011  23.69966  23.85439  23.98754
 Alpha virt. eigenvalues --   24.07563  24.08101  24.08528  24.08793  24.09214
 Alpha virt. eigenvalues --   24.10701  24.11088  24.11725  24.13416  24.15322
 Alpha virt. eigenvalues --   24.19598  24.21396  24.22437  24.24763  24.31409
 Alpha virt. eigenvalues --   24.34028  35.75091  50.14299
          Condensed to atoms (all electrons):
               1          2          3          4          5          6
     1  C    9.843434   0.430894   0.041448  -1.583949  -3.558028  -0.616799
     2  C    0.430894   9.983693  -0.225220   0.894029  -2.409370  -0.997576
     3  O    0.041448  -0.225220   8.376977  -0.118184   0.187107   0.026156
     4  C   -1.583949   0.894029  -0.118184   8.409088   0.663078  -0.600258
     5  C   -3.558028  -2.409370   0.187107   0.663078  10.880023   1.713869
     6  C   -0.616799  -0.997576   0.026156  -0.600258   1.713869   8.002453
     7  C    0.601153  -0.478078  -0.271089  -1.418840   0.702401   0.807104
     8  C    0.079396   0.119079   0.021367  -0.735993  -0.190523   0.868778
     9  H   -0.012510  -0.023301  -0.000622  -0.056528   0.044395   0.426220
    10  C    0.386518   0.616802   0.046142   0.894283  -1.630219  -2.425025
    11  H    0.002799  -0.001644   0.000491   0.026037   0.019459  -0.021505
    12  H   -0.013830  -0.007006  -0.001106   0.044971   0.019478  -0.058892
    13  C    1.867704  -1.051241  -0.014012  -1.145067  -1.222548  -0.532930
    14  H    0.022378  -0.004238  -0.001687   0.008736  -0.013715   0.007495
    15  C    0.299081  -1.263020   0.008979  -0.300410  -0.171747  -0.198625
    16  H    0.032912  -0.008716   0.000352  -0.013105  -0.006114  -0.001582
    17  C   -2.381133   1.711749   0.083236   0.872402   0.781060   0.097926
    18  C    0.852035  -1.612608  -0.208527  -0.564274   0.437122   0.061713
    19  H   -0.042249   0.101349   0.001007   0.023338   0.004154  -0.001344
    20  B    0.127136  -0.145495  -0.006046  -0.072126  -0.064734   0.024055
    21  N   -0.250594  -0.211677   0.031306   0.059764   0.242215   0.093665
    22  C    0.254233   0.128266  -0.031154  -0.078046  -0.374812  -0.059195
    23  H    0.045958   0.023174  -0.000128  -0.012645  -0.028829  -0.006035
    24  H    0.003587   0.002595  -0.000670  -0.000818  -0.027052  -0.000807
    25  H   -0.493206  -0.235271   0.031016   0.107466   0.526600   0.101262
    26  C   -0.035448  -0.067224  -0.014930  -0.002914   0.173782  -0.034460
    27  H   -0.004950  -0.005057  -0.001308   0.007542   0.004762  -0.005780
    28  H    0.002186   0.001518   0.001803  -0.013819   0.001438   0.014402
    29  H    0.007369   0.004266  -0.000055  -0.009120  -0.001034  -0.005260
    30  C    0.311506  -0.088945  -0.006628  -0.125961  -0.131584  -0.000627
    31  H    0.279225   0.101647  -0.034613  -0.045073  -0.198312  -0.029621
    32  C   -0.050143  -0.042748   0.012835   0.031039   0.038877  -0.000227
    33  H    0.007454  -0.020925  -0.000107  -0.004048  -0.000636  -0.000007
    34  C   -0.060623   0.002732  -0.003166   0.002750   0.016550   0.000480
    35  H   -0.001542  -0.001426   0.000091   0.000402   0.000836   0.000037
    36  H    0.001389  -0.000035  -0.000185  -0.000429  -0.001187  -0.000095
    37  C   -0.004674  -0.008085   0.028187  -0.015069  -0.018481   0.001972
    38  H   -0.007101  -0.001379  -0.000708   0.001177   0.001951   0.000314
    39  H    0.012647   0.002239   0.000223  -0.000944  -0.006966  -0.000480
    40  C   -0.007550   0.009387   0.001463  -0.002308  -0.004733  -0.000344
    41  H   -0.000727   0.000269   0.000218   0.000044  -0.000092   0.000016
    42  H    0.005021   0.000443  -0.000410  -0.000168  -0.002953  -0.000204
    43  H   -0.026742   0.005782   0.002299   0.007197   0.009321   0.000725
    44  H   -0.179724  -0.036125   0.005410   0.036125   0.132611   0.012301
               7          8          9         10         11         12
     1  C    0.601153   0.079396  -0.012510   0.386518   0.002799  -0.013830
     2  C   -0.478078   0.119079  -0.023301   0.616802  -0.001644  -0.007006
     3  O   -0.271089   0.021367  -0.000622   0.046142   0.000491  -0.001106
     4  C   -1.418840  -0.735993  -0.056528   0.894283   0.026037   0.044971
     5  C    0.702401  -0.190523   0.044395  -1.630219   0.019459   0.019478
     6  C    0.807104   0.868778   0.426220  -2.425025  -0.021505  -0.058892
     7  C    9.652165  -1.741439   0.014181  -1.432489  -0.019923  -0.064722
     8  C   -1.741439   7.971962  -0.002222   0.349995   0.379874  -0.085715
     9  H    0.014181  -0.002222   0.463466  -0.038603  -0.007149   0.000436
    10  C   -1.432489   0.349995  -0.038603   9.647161  -0.066917   0.533465
    11  H   -0.019923   0.379874  -0.007149  -0.066917   0.459897  -0.012172
    12  H   -0.064722  -0.085715   0.000436   0.533465  -0.012172   0.492012
    13  C    0.127653  -0.131305   0.011270   0.007286   0.001453  -0.005366
    14  H   -0.001097   0.010979   0.001184  -0.000334   0.000689  -0.000170
    15  C    0.047145  -0.112546   0.006594  -0.049145   0.000983  -0.001204
    16  H    0.002061   0.000330   0.000770   0.000335  -0.000050   0.000007
    17  C   -0.254220  -0.037744  -0.003138  -0.075680   0.000630   0.000027
    18  C   -0.034616  -0.002062   0.002346  -0.153809   0.000564   0.000308
    19  H   -0.004183  -0.000027  -0.000389  -0.000638   0.000045   0.000003
    20  B    0.014682   0.011830   0.000218  -0.023106   0.000403  -0.000112
    21  N    0.088946  -0.039771   0.001320  -0.498816  -0.001585  -0.023436
    22  C   -0.043181   0.054803  -0.000786   0.190020   0.000719  -0.009154
    23  H    0.011665  -0.003713  -0.000114   0.007997  -0.000521   0.001367
    24  H   -0.001090   0.012290   0.000007   0.031882   0.000192  -0.001961
    25  H   -0.105820  -0.056461   0.001731  -0.267866  -0.000828   0.005064
    26  C    0.161613  -0.303128  -0.000801  -0.289509   0.000536   0.013133
    27  H    0.013860  -0.017833  -0.000069   0.024204  -0.000119   0.006338
    28  H   -0.020766   0.034852   0.000171  -0.012619   0.000558  -0.010450
    29  H   -0.014813  -0.002774  -0.000167   0.012446   0.000670  -0.007533
    30  C    0.059391  -0.003395   0.000075   0.002010  -0.000156   0.000180
    31  H    0.067035   0.005293  -0.000526   0.045032   0.000081  -0.000478
    32  C   -0.007825   0.000257   0.000015  -0.001302   0.000004   0.000068
    33  H    0.000707  -0.000057   0.000020  -0.000015  -0.000003   0.000002
    34  C   -0.003772  -0.000040   0.000027   0.000186  -0.000000   0.000028
    35  H   -0.000078   0.000013   0.000001  -0.000028   0.000000  -0.000001
    36  H    0.000136   0.000002  -0.000003   0.000060  -0.000000   0.000002
    37  C    0.014298  -0.002180   0.000007  -0.004207  -0.000050   0.000315
    38  H   -0.001297  -0.000134   0.000007  -0.000449  -0.000002   0.000014
    39  H    0.002215   0.000136  -0.000010   0.001339  -0.000000  -0.000009
    40  C   -0.002129  -0.000146   0.000004   0.000451  -0.000005   0.000009
    41  H   -0.000003   0.000001   0.000000  -0.000025   0.000000  -0.000000
    42  H    0.001079  -0.000047  -0.000004   0.000320  -0.000001   0.000015
    43  H   -0.003617  -0.000117  -0.000010  -0.000650  -0.000001   0.000019
    44  H   -0.041624  -0.004191   0.000263  -0.022175  -0.000052  -0.000019
              13         14         15         16         17         18
     1  C    1.867704   0.022378   0.299081   0.032912  -2.381133   0.852035
     2  C   -1.051241  -0.004238  -1.263020  -0.008716   1.711749  -1.612608
     3  O   -0.014012  -0.001687   0.008979   0.000352   0.083236  -0.208527
     4  C   -1.145067   0.008736  -0.300410  -0.013105   0.872402  -0.564274
     5  C   -1.222548  -0.013715  -0.171747  -0.006114   0.781060   0.437122
     6  C   -0.532930   0.007495  -0.198625  -0.001582   0.097926   0.061713
     7  C    0.127653  -0.001097   0.047145   0.002061  -0.254220  -0.034616
     8  C   -0.131305   0.010979  -0.112546   0.000330  -0.037744  -0.002062
     9  H    0.011270   0.001184   0.006594   0.000770  -0.003138   0.002346
    10  C    0.007286  -0.000334  -0.049145   0.000335  -0.075680  -0.153809
    11  H    0.001453   0.000689   0.000983  -0.000050   0.000630   0.000564
    12  H   -0.005366  -0.000170  -0.001204   0.000007   0.000027   0.000308
    13  C    8.843471   0.379763   1.209493   0.019604  -3.119977   1.182719
    14  H    0.379763   0.453635  -0.034200  -0.007812  -0.012162  -0.011547
    15  C    1.209493  -0.034200   8.023966   0.367723  -0.054987  -1.145170
    16  H    0.019604  -0.007812   0.367723   0.455150  -0.099987   0.032091
    17  C   -3.119977  -0.012162  -0.054987  -0.099987  10.944029  -2.581318
    18  C    1.182719  -0.011547  -1.145170   0.032091  -2.581318   9.676325
    19  H   -0.101338   0.002939   0.000249  -0.016020   0.659371  -0.312226
    20  B    0.109488   0.000532   0.072856   0.002462  -0.272236   0.633758
    21  N   -0.053834   0.000050  -0.011510  -0.000270   0.038082   0.045565
    22  C    0.039516   0.000303   0.001264   0.000177  -0.054833  -0.053875
    23  H    0.005952   0.000049   0.000200   0.000013  -0.005724  -0.009331
    24  H    0.000777  -0.000002  -0.000161   0.000009  -0.001303   0.002126
    25  H   -0.082970  -0.000649   0.001187  -0.000463   0.134779   0.080517
    26  C   -0.013482  -0.000031  -0.002583  -0.000042   0.003979   0.007981
    27  H   -0.000924  -0.000007  -0.000163  -0.000002   0.000356   0.000630
    28  H    0.000152  -0.000003   0.000105   0.000001   0.000143   0.000399
    29  H    0.001090   0.000027   0.000121   0.000003  -0.000482  -0.001062
    30  C    0.133196  -0.000319   0.033666   0.001096  -0.279870   0.001956
    31  H    0.039018   0.000465  -0.010147   0.000413  -0.138857   0.023246
    32  C   -0.041295  -0.000509  -0.040851  -0.000557   0.149240  -0.266075
    33  H    0.016833  -0.000124   0.014894   0.001072  -0.042109   0.002755
    34  C    0.002217  -0.000067   0.060917   0.000096   0.111041  -0.076061
    35  H    0.000164   0.000003   0.003489  -0.000010   0.011182  -0.011275
    36  H    0.000306  -0.000017  -0.001481   0.000027  -0.001428  -0.021142
    37  C    0.021520  -0.000262  -0.039650  -0.000178  -0.278505  -0.027713
    38  H   -0.000124  -0.000027   0.002961  -0.000057   0.019945  -0.033075
    39  H    0.000588   0.000022  -0.001209  -0.000026  -0.006165  -0.004877
    40  C   -0.002848  -0.000044  -0.005777  -0.000110   0.002774  -0.018249
    41  H   -0.000101   0.000001  -0.000641   0.000001  -0.003982   0.005162
    42  H    0.000779  -0.000003  -0.000036  -0.000008  -0.001726  -0.023203
    43  H   -0.010822  -0.000086  -0.004122  -0.000475   0.047070  -0.093426
    44  H   -0.027056  -0.000346   0.010030  -0.000320   0.119381  -0.013972
              19         20         21         22         23         24
     1  C   -0.042249   0.127136  -0.250594   0.254233   0.045958   0.003587
     2  C    0.101349  -0.145495  -0.211677   0.128266   0.023174   0.002595
     3  O    0.001007  -0.006046   0.031306  -0.031154  -0.000128  -0.000670
     4  C    0.023338  -0.072126   0.059764  -0.078046  -0.012645  -0.000818
     5  C    0.004154  -0.064734   0.242215  -0.374812  -0.028829  -0.027052
     6  C   -0.001344   0.024055   0.093665  -0.059195  -0.006035  -0.000807
     7  C   -0.004183   0.014682   0.088946  -0.043181   0.011665  -0.001090
     8  C   -0.000027   0.011830  -0.039771   0.054803  -0.003713   0.012290
     9  H   -0.000389   0.000218   0.001320  -0.000786  -0.000114   0.000007
    10  C   -0.000638  -0.023106  -0.498816   0.190020   0.007997   0.031882
    11  H    0.000045   0.000403  -0.001585   0.000719  -0.000521   0.000192
    12  H    0.000003  -0.000112  -0.023436  -0.009154   0.001367  -0.001961
    13  C   -0.101338   0.109488  -0.053834   0.039516   0.005952   0.000777
    14  H    0.002939   0.000532   0.000050   0.000303   0.000049  -0.000002
    15  C    0.000249   0.072856  -0.011510   0.001264   0.000200  -0.000161
    16  H   -0.016020   0.002462  -0.000270   0.000177   0.000013   0.000009
    17  C    0.659371  -0.272236   0.038082  -0.054833  -0.005724  -0.001303
    18  C   -0.312226   0.633758   0.045565  -0.053875  -0.009331   0.002126
    19  H    0.552206  -0.015560   0.000648  -0.001124  -0.000043  -0.000038
    20  B   -0.015560   4.692434   0.019722  -0.035591  -0.010097   0.011574
    21  N    0.000648   0.019722   7.095446   0.187680  -0.095051  -0.057465
    22  C   -0.001124  -0.035591   0.187680   5.748900   0.475420   0.394108
    23  H   -0.000043  -0.010097  -0.095051   0.475420   0.603071  -0.069474
    24  H   -0.000038   0.011574  -0.057465   0.394108  -0.069474   0.594379
    25  H    0.002843   0.066867   0.065989  -0.089655  -0.129602  -0.025402
    26  C   -0.000007  -0.000800   0.335134  -0.220323  -0.009853  -0.017030
    27  H   -0.000006  -0.001061  -0.064443  -0.011230  -0.006930  -0.003178
    28  H    0.000004   0.000320  -0.034734  -0.006599   0.017445   0.004671
    29  H   -0.000008  -0.000090  -0.060174   0.017491   0.000397  -0.002155
    30  C   -0.014621   0.567909  -0.010682  -0.005046  -0.009057   0.023220
    31  H   -0.001033  -0.145152  -0.037624   0.112233   0.019335  -0.001483
    32  C    0.003954   0.395203   0.002645  -0.006093  -0.000048  -0.001398
    33  H   -0.004890  -0.069239   0.000046   0.000056  -0.000053   0.000114
    34  C   -0.005551  -0.127372   0.000909   0.000567  -0.000428   0.002133
    35  H    0.000301   0.050593   0.000022   0.000005  -0.000014   0.000068
    36  H   -0.005205  -0.110212   0.000008   0.000360   0.000040  -0.000095
    37  C   -0.007851  -0.212565  -0.007731  -0.006833   0.009623  -0.025608
    38  H   -0.000581  -0.080662   0.000285  -0.001448  -0.000290  -0.000662
    39  H    0.000534   0.048308  -0.000657   0.003336   0.000508  -0.001041
    40  C   -0.001296  -0.224247   0.000063  -0.003071   0.000076  -0.001974
    41  H   -0.000011   0.013543   0.000002  -0.000305   0.000026  -0.000101
    42  H   -0.001183  -0.089883  -0.000435   0.002016   0.000171  -0.000924
    43  H   -0.005122  -0.184533   0.000907  -0.002364  -0.000154  -0.000256
    44  H   -0.002207  -0.191342   0.017841  -0.026039   0.001148  -0.010364
              25         26         27         28         29         30
     1  C   -0.493206  -0.035448  -0.004950   0.002186   0.007369   0.311506
     2  C   -0.235271  -0.067224  -0.005057   0.001518   0.004266  -0.088945
     3  O    0.031016  -0.014930  -0.001308   0.001803  -0.000055  -0.006628
     4  C    0.107466  -0.002914   0.007542  -0.013819  -0.009120  -0.125961
     5  C    0.526600   0.173782   0.004762   0.001438  -0.001034  -0.131584
     6  C    0.101262  -0.034460  -0.005780   0.014402  -0.005260  -0.000627
     7  C   -0.105820   0.161613   0.013860  -0.020766  -0.014813   0.059391
     8  C   -0.056461  -0.303128  -0.017833   0.034852  -0.002774  -0.003395
     9  H    0.001731  -0.000801  -0.000069   0.000171  -0.000167   0.000075
    10  C   -0.267866  -0.289509   0.024204  -0.012619   0.012446   0.002010
    11  H   -0.000828   0.000536  -0.000119   0.000558   0.000670  -0.000156
    12  H    0.005064   0.013133   0.006338  -0.010450  -0.007533   0.000180
    13  C   -0.082970  -0.013482  -0.000924   0.000152   0.001090   0.133196
    14  H   -0.000649  -0.000031  -0.000007  -0.000003   0.000027  -0.000319
    15  C    0.001187  -0.002583  -0.000163   0.000105   0.000121   0.033666
    16  H   -0.000463  -0.000042  -0.000002   0.000001   0.000003   0.001096
    17  C    0.134779   0.003979   0.000356   0.000143  -0.000482  -0.279870
    18  C    0.080517   0.007981   0.000630   0.000399  -0.001062   0.001956
    19  H    0.002843  -0.000007  -0.000006   0.000004  -0.000008  -0.014621
    20  B    0.066867  -0.000800  -0.001061   0.000320  -0.000090   0.567909
    21  N    0.065989   0.335134  -0.064443  -0.034734  -0.060174  -0.010682
    22  C   -0.089655  -0.220323  -0.011230  -0.006599   0.017491  -0.005046
    23  H   -0.129602  -0.009853  -0.006930   0.017445   0.000397  -0.009057
    24  H   -0.025402  -0.017030  -0.003178   0.004671  -0.002155   0.023220
    25  H    1.345540   0.036109   0.020879  -0.008480  -0.007436  -0.007790
    26  C    0.036109   5.425944   0.404473   0.388989   0.426108   0.000317
    27  H    0.020879   0.404473   0.512694  -0.050044  -0.004990  -0.000753
    28  H   -0.008480   0.388989  -0.050044   0.576602  -0.049683  -0.000127
    29  H   -0.007436   0.426108  -0.004990  -0.049683   0.534265   0.000199
    30  C   -0.007790   0.000317  -0.000753  -0.000127   0.000199   6.961674
    31  H   -0.223068  -0.004088  -0.000874  -0.000116   0.000570   0.380789
    32  C    0.010267   0.000309   0.000127  -0.000028  -0.000043  -0.229431
    33  H   -0.000160   0.000040   0.000002  -0.000002   0.000002   0.009223
    34  C   -0.001106  -0.000025  -0.000120   0.000020  -0.000034   0.361193
    35  H   -0.000044  -0.000001  -0.000003   0.000001   0.000000   0.017087
    36  H   -0.000652  -0.000004   0.000002  -0.000001   0.000000  -0.008962
    37  C   -0.000401  -0.001280   0.001719  -0.000553   0.000015  -1.763278
    38  H    0.007428   0.000008   0.000058  -0.000013  -0.000007  -0.063987
    39  H   -0.005178  -0.000105   0.000021  -0.000022   0.000030  -0.078249
    40  C    0.016234  -0.000327  -0.000007   0.000015  -0.000022  -0.067036
    41  H    0.000225  -0.000010   0.000002  -0.000001  -0.000000  -0.013640
    42  H   -0.000826  -0.000060   0.000099  -0.000020  -0.000008  -0.042757
    43  H    0.005328   0.000214   0.000048  -0.000009  -0.000014  -0.011177
    44  H    0.037301   0.003276   0.000411   0.000179  -0.000031   0.388317
              31         32         33         34         35         36
     1  C    0.279225  -0.050143   0.007454  -0.060623  -0.001542   0.001389
     2  C    0.101647  -0.042748  -0.020925   0.002732  -0.001426  -0.000035
     3  O   -0.034613   0.012835  -0.000107  -0.003166   0.000091  -0.000185
     4  C   -0.045073   0.031039  -0.004048   0.002750   0.000402  -0.000429
     5  C   -0.198312   0.038877  -0.000636   0.016550   0.000836  -0.001187
     6  C   -0.029621  -0.000227  -0.000007   0.000480   0.000037  -0.000095
     7  C    0.067035  -0.007825   0.000707  -0.003772  -0.000078   0.000136
     8  C    0.005293   0.000257  -0.000057  -0.000040   0.000013   0.000002
     9  H   -0.000526   0.000015   0.000020   0.000027   0.000001  -0.000003
    10  C    0.045032  -0.001302  -0.000015   0.000186  -0.000028   0.000060
    11  H    0.000081   0.000004  -0.000003  -0.000000   0.000000  -0.000000
    12  H   -0.000478   0.000068   0.000002   0.000028  -0.000001   0.000002
    13  C    0.039018  -0.041295   0.016833   0.002217   0.000164   0.000306
    14  H    0.000465  -0.000509  -0.000124  -0.000067   0.000003  -0.000017
    15  C   -0.010147  -0.040851   0.014894   0.060917   0.003489  -0.001481
    16  H    0.000413  -0.000557   0.001072   0.000096  -0.000010   0.000027
    17  C   -0.138857   0.149240  -0.042109   0.111041   0.011182  -0.001428
    18  C    0.023246  -0.266075   0.002755  -0.076061  -0.011275  -0.021142
    19  H   -0.001033   0.003954  -0.004890  -0.005551   0.000301  -0.005205
    20  B   -0.145152   0.395203  -0.069239  -0.127372   0.050593  -0.110212
    21  N   -0.037624   0.002645   0.000046   0.000909   0.000022   0.000008
    22  C    0.112233  -0.006093   0.000056   0.000567   0.000005   0.000360
    23  H    0.019335  -0.000048  -0.000053  -0.000428  -0.000014   0.000040
    24  H   -0.001483  -0.001398   0.000114   0.002133   0.000068  -0.000095
    25  H   -0.223068   0.010267  -0.000160  -0.001106  -0.000044  -0.000652
    26  C   -0.004088   0.000309   0.000040  -0.000025  -0.000001  -0.000004
    27  H   -0.000874   0.000127   0.000002  -0.000120  -0.000003   0.000002
    28  H   -0.000116  -0.000028  -0.000002   0.000020   0.000001  -0.000001
    29  H    0.000570  -0.000043   0.000002  -0.000034   0.000000   0.000000
    30  C    0.380789  -0.229431   0.009223   0.361193   0.017087  -0.008962
    31  H    0.791009  -0.039354  -0.010217  -0.000456   0.000909   0.000293
    32  C   -0.039354   5.946265   0.348315  -0.526672  -0.038267  -0.124329
    33  H   -0.010217   0.348315   0.581874   0.009980  -0.017546   0.008852
    34  C   -0.000456  -0.526672   0.009980   6.716918   0.409697   0.543622
    35  H    0.000909  -0.038267  -0.017546   0.409697   0.539072  -0.026885
    36  H    0.000293  -0.124329   0.008852   0.543622  -0.026885   0.547977
    37  C   -0.034874   0.333772   0.003862  -0.597950  -0.003433  -0.025303
    38  H   -0.011503   0.005801   0.001191  -0.051546  -0.003332   0.012751
    39  H   -0.013828   0.000731   0.000668   0.011446   0.000220  -0.004581
    40  C   -0.032065   0.005504   0.008764  -0.178666  -0.072449   0.010731
    41  H   -0.000043   0.021647   0.000426  -0.037877  -0.007150  -0.006517
    42  H    0.001869  -0.039222   0.000999  -0.069086  -0.006739   0.016160
    43  H   -0.018796   0.484630   0.002889  -0.040196  -0.019925   0.017459
    44  H   -0.032564   0.041739  -0.003295  -0.012253   0.000327   0.006586
              37         38         39         40         41         42
     1  C   -0.004674  -0.007101   0.012647  -0.007550  -0.000727   0.005021
     2  C   -0.008085  -0.001379   0.002239   0.009387   0.000269   0.000443
     3  O    0.028187  -0.000708   0.000223   0.001463   0.000218  -0.000410
     4  C   -0.015069   0.001177  -0.000944  -0.002308   0.000044  -0.000168
     5  C   -0.018481   0.001951  -0.006966  -0.004733  -0.000092  -0.002953
     6  C    0.001972   0.000314  -0.000480  -0.000344   0.000016  -0.000204
     7  C    0.014298  -0.001297   0.002215  -0.002129  -0.000003   0.001079
     8  C   -0.002180  -0.000134   0.000136  -0.000146   0.000001  -0.000047
     9  H    0.000007   0.000007  -0.000010   0.000004   0.000000  -0.000004
    10  C   -0.004207  -0.000449   0.001339   0.000451  -0.000025   0.000320
    11  H   -0.000050  -0.000002  -0.000000  -0.000005   0.000000  -0.000001
    12  H    0.000315   0.000014  -0.000009   0.000009  -0.000000   0.000015
    13  C    0.021520  -0.000124   0.000588  -0.002848  -0.000101   0.000779
    14  H   -0.000262  -0.000027   0.000022  -0.000044   0.000001  -0.000003
    15  C   -0.039650   0.002961  -0.001209  -0.005777  -0.000641  -0.000036
    16  H   -0.000178  -0.000057  -0.000026  -0.000110   0.000001  -0.000008
    17  C   -0.278505   0.019945  -0.006165   0.002774  -0.003982  -0.001726
    18  C   -0.027713  -0.033075  -0.004877  -0.018249   0.005162  -0.023203
    19  H   -0.007851  -0.000581   0.000534  -0.001296  -0.000011  -0.001183
    20  B   -0.212565  -0.080662   0.048308  -0.224247   0.013543  -0.089883
    21  N   -0.007731   0.000285  -0.000657   0.000063   0.000002  -0.000435
    22  C   -0.006833  -0.001448   0.003336  -0.003071  -0.000305   0.002016
    23  H    0.009623  -0.000290   0.000508   0.000076   0.000026   0.000171
    24  H   -0.025608  -0.000662  -0.001041  -0.001974  -0.000101  -0.000924
    25  H   -0.000401   0.007428  -0.005178   0.016234   0.000225  -0.000826
    26  C   -0.001280   0.000008  -0.000105  -0.000327  -0.000010  -0.000060
    27  H    0.001719   0.000058   0.000021  -0.000007   0.000002   0.000099
    28  H   -0.000553  -0.000013  -0.000022   0.000015  -0.000001  -0.000020
    29  H    0.000015  -0.000007   0.000030  -0.000022  -0.000000  -0.000008
    30  C   -1.763278  -0.063987  -0.078249  -0.067036  -0.013640  -0.042757
    31  H   -0.034874  -0.011503  -0.013828  -0.032065  -0.000043   0.001869
    32  C    0.333772   0.005801   0.000731   0.005504   0.021647  -0.039222
    33  H    0.003862   0.001191   0.000668   0.008764   0.000426   0.000999
    34  C   -0.597950  -0.051546   0.011446  -0.178666  -0.037877  -0.069086
    35  H   -0.003433  -0.003332   0.000220  -0.072449  -0.007150  -0.006739
    36  H   -0.025303   0.012751  -0.004581   0.010731  -0.006517   0.016160
    37  C    8.614311   0.486253   0.445524  -0.110769   0.000464  -0.046792
    38  H    0.486253   0.552614  -0.029581   0.010031  -0.012168   0.016590
    39  H    0.445524  -0.029581   0.541657  -0.062913  -0.003792  -0.005595
    40  C   -0.110769   0.010031  -0.062913   5.994228   0.362816   0.591192
    41  H    0.000464  -0.012168  -0.003792   0.362816   0.516494  -0.023579
    42  H   -0.046792   0.016590  -0.005595   0.591192  -0.023579   0.557985
    43  H   -0.003880   0.004747  -0.001053   0.048825  -0.003364   0.010910
    44  H   -0.031706   0.017980  -0.027450   0.007716  -0.004437   0.011387
              43         44
     1  C   -0.026742  -0.179724
     2  C    0.005782  -0.036125
     3  O    0.002299   0.005410
     4  C    0.007197   0.036125
     5  C    0.009321   0.132611
     6  C    0.000725   0.012301
     7  C   -0.003617  -0.041624
     8  C   -0.000117  -0.004191
     9  H   -0.000010   0.000263
    10  C   -0.000650  -0.022175
    11  H   -0.000001  -0.000052
    12  H    0.000019  -0.000019
    13  C   -0.010822  -0.027056
    14  H   -0.000086  -0.000346
    15  C   -0.004122   0.010030
    16  H   -0.000475  -0.000320
    17  C    0.047070   0.119381
    18  C   -0.093426  -0.013972
    19  H   -0.005122  -0.002207
    20  B   -0.184533  -0.191342
    21  N    0.000907   0.017841
    22  C   -0.002364  -0.026039
    23  H   -0.000154   0.001148
    24  H   -0.000256  -0.010364
    25  H    0.005328   0.037301
    26  C    0.000214   0.003276
    27  H    0.000048   0.000411
    28  H   -0.000009   0.000179
    29  H   -0.000014  -0.000031
    30  C   -0.011177   0.388317
    31  H   -0.018796  -0.032564
    32  C    0.484630   0.041739
    33  H    0.002889  -0.003295
    34  C   -0.040196  -0.012253
    35  H   -0.019925   0.000327
    36  H    0.017459   0.006586
    37  C   -0.003880  -0.031706
    38  H    0.004747   0.017980
    39  H   -0.001053  -0.027450
    40  C    0.048825   0.007716
    41  H   -0.003364  -0.004437
    42  H    0.010910   0.011387
    43  H    0.543735   0.017697
    44  H    0.017697   0.600103
 Mulliken charges:
               1
     1  C   -0.185941
     2  C    0.806498
     3  O    0.032442
     4  C    0.830632
     5  C   -0.537418
     6  C   -0.663265
     7  C   -0.422780
     8  C   -0.447673
     9  H    0.172221
    10  C    0.195691
    11  H    0.236599
    12  H    0.186075
    13  C   -0.464772
    14  H    0.200208
    15  C   -0.716521
    16  H    0.239196
    17  C   -0.080834
    18  C    0.230172
    19  H    0.191806
    20  B    0.218368
    21  N    0.132229
    22  C   -0.490719
    23  H    0.174496
    24  H    0.168783
    25  H    0.138703
    26  C   -0.363481
    27  H    0.181625
    28  H    0.162116
    29  H    0.161923
    30  C   -0.288928
    31  H    0.196303
    32  C   -0.376825
    33  H    0.152393
    34  C   -0.460445
    35  H    0.175633
    36  H    0.171984
    37  C   -0.681983
    38  H    0.158026
    39  H    0.182341
    40  C   -0.271198
    41  H    0.197208
    42  H    0.138838
    43  H    0.221109
    44  H    0.199163
 Sum of Mulliken charges =  -0.00000
 Mulliken charges with hydrogens summed into heavy atoms:
               1
     1  C   -0.185941
     2  C    0.806498
     3  O    0.032442
     4  C    0.830632
     5  C   -0.537418
     6  C   -0.491044
     7  C   -0.422780
     8  C   -0.211073
    10  C    0.381766
    13  C   -0.264564
    15  C   -0.477325
    17  C    0.110972
    18  C    0.230172
    20  B    0.218368
    21  N    0.132229
    22  C   -0.008736
    26  C    0.142183
    30  C    0.106539
    32  C   -0.003323
    34  C   -0.112828
    37  C   -0.341616
    40  C    0.064848
 Electronic spatial extent (au):  <R**2>=          14499.2136
 Charge=             -0.0000 electrons
 Dipole moment (field-independent basis, Debye):
    X=             -0.2009    Y=              0.8797    Z=              0.3775  Tot=              0.9782
 Quadrupole moment (field-independent basis, Debye-Ang):
   XX=           -130.9010   YY=           -119.1073   ZZ=           -120.6162
   XY=             -7.8753   XZ=             -2.5767   YZ=              5.3222
 Traceless Quadrupole moment (field-independent basis, Debye-Ang):
   XX=             -7.3594   YY=              4.4342   ZZ=              2.9253
   XY=             -7.8753   XZ=             -2.5767   YZ=              5.3222
 Octapole moment (field-independent basis, Debye-Ang**2):
  XXX=           -801.5981  YYY=           -966.1110  ZZZ=           -361.8033  XYY=           -316.5621
  XXY=           -371.8094  XXZ=           -118.0431  XZZ=           -254.6744  YZZ=           -306.5718
  YYZ=            -77.6443  XYZ=              0.5328
 Hexadecapole moment (field-independent basis, Debye-Ang**3):
 XXXX=          -5507.6192 YYYY=          -9654.3305 ZZZZ=          -4425.8626 XXXY=           -816.8296
 XXXZ=          -1079.6623 YYYX=          -1059.9252 YYYZ=           -128.7105 ZZZX=          -1158.1384
 ZZZY=           -367.7418 XXYY=          -2682.4131 XXZZ=          -1651.4180 YYZZ=          -2236.9849
 XXYZ=            -82.5578 YYXZ=           -354.7223 ZZXY=           -233.3913
 N-N= 1.722170960943D+03 E-N=-5.517047073866D+03  KE= 8.881787833361D+02
 Breneman (CHELPG) radii used.
 Generate Potential Derived Charges using the Breneman model, NDens= 1.
 Grid spacing= 0.300 Box extension= 2.800
 NStep X,Y,Z=   44     51     50   Total possible points=      112200
 Number of Points to Fit=   23406

 **********************************************************************

            Electrostatic Properties Using The SCF Density.

 **********************************************************************

       Atomic Center    1 is at   2.330851  2.277342 -0.042861
       Atomic Center    2 is at   2.133601  2.733820 -1.349424
       Atomic Center    3 is at   1.676350  3.075507  0.852691
       Atomic Center    4 is at   1.295159  3.912164 -1.236494
       Atomic Center    5 is at   1.061276  4.061850  0.128035
       Atomic Center    6 is at   0.716293  4.793654 -2.151007
       Atomic Center    7 is at   0.264212  5.077009  0.676983
       Atomic Center    8 is at  -0.082588  5.800894 -1.641949
       Atomic Center    9 is at   0.879871  4.686616 -3.216493
       Atomic Center   10 is at  -0.298937  5.944404 -0.265120
       Atomic Center   11 is at  -0.553047  6.507865 -2.315957
       Atomic Center   12 is at  -0.924462  6.760003  0.073078
       Atomic Center   13 is at   2.714510  2.040495 -2.407638
       Atomic Center   14 is at   2.583996  2.375854 -3.430400
       Atomic Center   15 is at   3.462179  0.907625 -2.119034
       Atomic Center   16 is at   3.926012  0.349611 -2.924252
       Atomic Center   17 is at   3.620566  0.471440 -0.800585
       Atomic Center   18 is at   3.069837  1.143127  0.301278
       Atomic Center   19 is at   4.212386 -0.420077 -0.624151
       Atomic Center   20 is at   3.316941  0.667386  1.776914
       Atomic Center   21 is at   0.022942  5.155786  2.053409
       Atomic Center   22 is at   1.195908  5.170207  2.921338
       Atomic Center   23 is at   1.721875  6.136613  2.876008
       Atomic Center   24 is at   0.876453  4.998994  3.951496
       Atomic Center   25 is at   1.888128  4.378206  2.646934
       Atomic Center   26 is at  -0.992320  6.096442  2.483481
       Atomic Center   27 is at  -1.194815  5.926426  3.542477
       Atomic Center   28 is at  -0.686580  7.148411  2.360360
       Atomic Center   29 is at  -1.919684  5.933483  1.931489
       Atomic Center   30 is at   3.232667  1.671634  2.987560
       Atomic Center   31 is at   3.535570  2.684754  2.705005
       Atomic Center   32 is at   3.539244 -0.858034  2.095728
       Atomic Center   33 is at   3.993059 -1.421201  1.273830
       Atomic Center   34 is at   4.242472 -1.156923  3.427700
       Atomic Center   35 is at   4.125059 -2.212628  3.693111
       Atomic Center   36 is at   5.320565 -0.986554  3.313923
       Atomic Center   37 is at   3.953852  1.213041  4.263672
       Atomic Center   38 is at   5.032173  1.382282  4.149393
       Atomic Center   39 is at   3.638738  1.820581  5.118409
       Atomic Center   40 is at   3.726257 -0.269541  4.561404
       Atomic Center   41 is at   4.219988 -0.540795  5.500098
       Atomic Center   42 is at   2.652804 -0.452196  4.706954
       Atomic Center   43 is at   2.503538 -1.241144  2.148969
       Atomic Center   44 is at   2.150789  1.757897  3.189734
   23406 points will be used for fitting atomic charges
 Fitting point charges to electrostatic potential
 Charges from ESP fit, RMS=   0.00410 RRMS=   0.41175:
 ESP charges:
               1
     1  C    0.355098
     2  C   -0.035069
     3  O   -0.311311
     4  C    0.050006
     5  C    0.048069
     6  C   -0.222780
     7  C    0.321620
     8  C   -0.134886
     9  H    0.140987
    10  C   -0.239457
    11  H    0.116116
    12  H    0.143796
    13  C   -0.132351
    14  H    0.132427
    15  C   -0.159946
    16  H    0.111258
    17  C   -0.055264
    18  C   -0.339219
    19  H    0.091407
    20  B    0.498084
    21  N   -0.397521
    22  C    0.014300
    23  H    0.016953
    24  H    0.068695
    25  H    0.075314
    26  C   -0.045866
    27  H    0.083931
    28  H    0.047755
    29  H    0.049195
    30  C   -0.231115
    31  H    0.007129
    32  C   -0.282709
    33  H    0.043706
    34  C    0.173876
    35  H   -0.036277
    36  H   -0.047520
    37  C    0.103905
    38  H   -0.027580
    39  H   -0.023326
    40  C   -0.039587
    41  H   -0.015377
    42  H    0.000546
    43  H    0.034598
    44  H    0.048386
 Sum of ESP charges =   0.00000
 ESP charges with hydrogens summed into heavy atoms:
               1
     1  C    0.355098
     2  C   -0.035069
     3  O   -0.311311
     4  C    0.050006
     5  C    0.048069
     6  C   -0.081793
     7  C    0.321620
     8  C   -0.018770
    10  C   -0.095661
    13  C    0.000076
    15  C   -0.048688
    17  C    0.036143
    18  C   -0.339219
    20  B    0.498084
    21  N   -0.397521
    22  C    0.175262
    26  C    0.135016
    30  C   -0.175599
    32  C   -0.204405
    34  C    0.090080
    37  C    0.053000
    40  C   -0.054418
 Charge=   0.00000 Dipole=    -0.2153     1.0109     0.1779 Tot=     1.0488
 -----------------------------------------------------------------

              Electrostatic Properties (Atomic Units)

 -----------------------------------------------------------------
    Center     Electric         -------- Electric Field --------
               Potential          X             Y             Z
 -----------------------------------------------------------------
    1 Atom    -14.716351
    2 Atom    -14.767305
    3 Atom    -22.308140
    4 Atom    -14.767863
    5 Atom    -14.721296
    6 Atom    -14.776810
    7 Atom    -14.729846
    8 Atom    -14.776528
    9 Atom     -1.103064
   10 Atom    -14.776651
   11 Atom     -1.108614
   12 Atom     -1.102639
   13 Atom    -14.763681
   14 Atom     -1.095063
   15 Atom    -14.774707
   16 Atom     -1.105049
   17 Atom    -14.768824
   18 Atom    -14.786676
   19 Atom     -1.106938
   20 Atom    -11.473570
   21 Atom    -18.376627
   22 Atom    -14.753179
   23 Atom     -1.120496
   24 Atom     -1.114250
   25 Atom     -1.118570
   26 Atom    -14.746418
   27 Atom     -1.107636
   28 Atom     -1.112920
   29 Atom     -1.109102
   30 Atom    -14.806451
   31 Atom     -1.133649
   32 Atom    -14.802156
   33 Atom     -1.127317
   34 Atom    -14.783367
   35 Atom     -1.140371
   36 Atom     -1.137814
   37 Atom    -14.784914
   38 Atom     -1.139295
   39 Atom     -1.141425
   40 Atom    -14.786395
   41 Atom     -1.137545
   42 Atom     -1.136694
   43 Atom     -1.112301
   44 Atom     -1.117677
 -----------------------------------------------------------------
 Unable to Open any file for archive entry.
 1\1\GINC-IRENE4962\SP\RwB97XD\GenECP\C19H22B1N1O1\PENASFRA\11-Apr-2024
 \0\\# wb97xd/genecp scrf=(solvent=toluene,pcm) nosymm pop=(chelpg) scf
 cyc=300\\cyclo_dibenzofuran_chelpg\\0,1\C,0,2.330851,2.277342,-0.04286
 1\C,0,2.133601,2.73382,-1.349424\O,0,1.67635,3.075507,0.852691\C,0,1.2
 95159,3.912164,-1.236494\C,0,1.061276,4.06185,0.128035\C,0,0.716293,4.
 793654,-2.151007\C,0,0.264212,5.077009,0.676983\C,0,-0.082588,5.800894
 ,-1.641949\H,0,0.879871,4.686616,-3.216493\C,0,-0.298937,5.944404,-0.2
 6512\H,0,-0.553047,6.507865,-2.315957\H,0,-0.924462,6.760003,0.073078\
 C,0,2.71451,2.040495,-2.407638\H,0,2.583996,2.375854,-3.4304\C,0,3.462
 179,0.907625,-2.119034\H,0,3.926012,0.349611,-2.924252\C,0,3.620566,0.
 47144,-0.800585\C,0,3.069837,1.143127,0.301278\H,0,4.212386,-0.420077,
 -0.624151\B,0,3.316941,0.667386,1.776914\N,0,0.022942,5.155786,2.05340
 9\C,0,1.195908,5.170207,2.921338\H,0,1.721875,6.136613,2.876008\H,0,0.
 876453,4.998994,3.951496\H,0,1.888128,4.378206,2.646934\C,0,-0.99232,6
 .096442,2.483481\H,0,-1.194815,5.926426,3.542477\H,0,-0.68658,7.148411
 ,2.36036\H,0,-1.919684,5.933483,1.931489\C,0,3.232667,1.671634,2.98756
 \H,0,3.53557,2.684754,2.705005\C,0,3.539244,-0.858034,2.095728\H,0,3.9
 93059,-1.421201,1.27383\C,0,4.242472,-1.156923,3.4277\H,0,4.125059,-2.
 212628,3.693111\H,0,5.320565,-0.986554,3.313923\C,0,3.953852,1.213041,
 4.263672\H,0,5.032173,1.382282,4.149393\H,0,3.638738,1.820581,5.118409
 \C,0,3.726257,-0.269541,4.561404\H,0,4.219988,-0.540795,5.500098\H,0,2
 .652804,-0.452196,4.706954\H,0,2.503538,-1.241144,2.148969\H,0,2.15078
 9,1.757897,3.189734\\Version=AS64L-G16RevC.02\HF=-892.0591238\RMSD=4.9
 32e-09\Dipole=-0.0790228,0.3461138,0.1485365\Quadrupole=-5.4715705,3.2
 966937,2.1748767,-5.8550583,-1.9157479,3.9569301\PG=C01 [X(C19H22B1N1O
 1)]\\@
 The archive entry for this job was punched.


 There was a great rattling of the words for the fewness of ideas.
                   -- Charles Baxter in Gryphon
 Job cpu time:       0 days  2 hours 35 minutes 16.1 seconds.
 Elapsed time:       0 days  0 hours  1 minutes 33.1 seconds.
 File lengths (MBytes):  RWF=    364 Int=      0 D2E=      0 Chk=     26 Scr=      1
 Normal termination of Gaussian 16 at Thu Apr 11 14:33:40 2024.
