 Entering Gaussian System, Link 0=/ccc/products/gaussian-16-C.02/system/default/g16/g16
 Input=ethy_dimethylaniline_chelpg.gjf
 Output=ethy_dimethylaniline_chelpg.log
 Initial command:
 /ccc/products/gaussian-16-C.02/system/default/g16/l1.exe "/ccc/scratch/cont003/gen7343/penasfra/flp/b-n_flp/ethy_dimethylaniline/Reactant/Gau-2062640.inp" -scrdir="/ccc/scratch/cont003/gen7343/penasfra/flp/b-n_flp/ethy_dimethylaniline/Reactant/"
 Entering Link 1 = /ccc/products/gaussian-16-C.02/system/default/g16/l1.exe PID=   2062689.
  
 Copyright (c) 1988-2021, Gaussian, Inc.  All Rights Reserved.
  
 This is part of the Gaussian(R) 16 program.  It is based on
 the Gaussian(R) 09 system (copyright 2009, Gaussian, Inc.),
 the Gaussian(R) 03 system (copyright 2003, Gaussian, Inc.),
 the Gaussian(R) 98 system (copyright 1998, Gaussian, Inc.),
 the Gaussian(R) 94 system (copyright 1995, Gaussian, Inc.),
 the Gaussian 92(TM) system (copyright 1992, Gaussian, Inc.),
 the Gaussian 90(TM) system (copyright 1990, Gaussian, Inc.),
 the Gaussian 88(TM) system (copyright 1988, Gaussian, Inc.),
 the Gaussian 86(TM) system (copyright 1986, Carnegie Mellon
 University), and the Gaussian 82(TM) system (copyright 1983,
 Carnegie Mellon University). Gaussian is a federally registered
 trademark of Gaussian, Inc.
  
 This software contains proprietary and confidential information,
 including trade secrets, belonging to Gaussian, Inc.
  
 This software is provided under written license and may be
 used, copied, transmitted, or stored only in accord with that
 written license.
  
 The following legend is applicable only to US Government
 contracts under FAR:
  
                    RESTRICTED RIGHTS LEGEND
  
 Use, reproduction and disclosure by the US Government is
 subject to restrictions as set forth in subparagraphs (a)
 and (c) of the Commercial Computer Software - Restricted
 Rights clause in FAR 52.227-19.
  
 Gaussian, Inc.
 340 Quinnipiac St., Bldg. 40, Wallingford CT 06492
  
  
 ---------------------------------------------------------------
 Warning -- This program may not be used in any manner that
 competes with the business of Gaussian, Inc. or will provide
 assistance to any competitor of Gaussian, Inc.  The licensee
 of this program is prohibited from giving any competitor of
 Gaussian, Inc. access to this program.  By using this program,
 the user acknowledges that Gaussian, Inc. is engaged in the
 business of creating and licensing software in the field of
 computational chemistry and represents and warrants to the
 licensee that it is not a competitor of Gaussian, Inc. and that
 it will not use this program in any manner prohibited above.
 ---------------------------------------------------------------
  

 Cite this work as:
 Gaussian 16, Revision C.02,
 M. J. Frisch, G. W. Trucks, H. B. Schlegel, G. E. Scuseria, 
 M. A. Robb, J. R. Cheeseman, G. Scalmani, V. Barone, 
 G. A. Petersson, H. Nakatsuji, X. Li, M. Caricato, A. V. Marenich, 
 J. Bloino, B. G. Janesko, R. Gomperts, B. Mennucci, H. P. Hratchian, 
 J. V. Ortiz, A. F. Izmaylov, J. L. Sonnenberg, D. Williams-Young, 
 F. Ding, F. Lipparini, F. Egidi, J. Goings, B. Peng, A. Petrone, 
 T. Henderson, D. Ranasinghe, V. G. Zakrzewski, J. Gao, N. Rega, 
 G. Zheng, W. Liang, M. Hada, M. Ehara, K. Toyota, R. Fukuda, 
 J. Hasegawa, M. Ishida, T. Nakajima, Y. Honda, O. Kitao, H. Nakai, 
 T. Vreven, K. Throssell, J. A. Montgomery, Jr., J. E. Peralta, 
 F. Ogliaro, M. J. Bearpark, J. J. Heyd, E. N. Brothers, K. N. Kudin, 
 V. N. Staroverov, T. A. Keith, R. Kobayashi, J. Normand, 
 K. Raghavachari, A. P. Rendell, J. C. Burant, S. S. Iyengar, 
 J. Tomasi, M. Cossi, J. M. Millam, M. Klene, C. Adamo, R. Cammi, 
 J. W. Ochterski, R. L. Martin, K. Morokuma, O. Farkas, 
 J. B. Foresman, and D. J. Fox, Gaussian, Inc., Wallingford CT, 2019.
 
 ******************************************
 Gaussian 16:  AS64L-G16RevC.02  7-Dec-2021
                 9-Apr-2024 
 ******************************************
 %nprocshared=128
 Will use up to  128 processors via shared memory.
 %mem=30GB
 %chk=ethy_dimethylaniline_chelpg.chk
 ----------------------------------------------------------------------
 # wb97xd/genecp scrf=(solvent=toluene,pcm) nosymm pop=(chelpg) scfcyc=
 300
 ----------------------------------------------------------------------
 1/38=1,172=1/1;
 2/12=2,15=1,17=6,18=5,40=1/2;
 3/5=7,11=2,16=1,17=8,25=1,30=1,70=2201,72=13,74=-58/1,2,3;
 4//1;
 5/5=2,7=300,38=5,53=13/2;
 6/7=2,8=2,9=2,10=2,15=8,20=3,28=1/1,2;
 99/5=1,9=1/99;
 ---------------------------
 ethy_dimethylaniline_chelpg
 ---------------------------
 Symbolic Z-matrix:
 Charge =  0 Multiplicity = 1
 C                    -0.63943   0.92027   0.80787 
 C                     0.73084   1.07934   0.90789 
 C                     1.39866   2.21552   0.40982 
 C                     0.60903   3.27976  -0.11276 
 C                    -0.77815   3.09101  -0.24634 
 C                    -1.38376   1.92872   0.20082 
 H                    -1.12078   0.02324   1.17828 
 H                     1.32626   0.28238   1.34083 
 H                    -1.39655   3.87517  -0.66282 
 H                    -2.45896   1.82325   0.09947 
 N                     1.19425   4.47808  -0.48487 
 B                     2.9265    2.08712   0.23717 
 C                     2.13073   5.14912   0.40323 
 H                     2.47623   4.47336   1.18354 
 H                     3.00339   5.50693  -0.14933 
 H                     1.64171   6.00608   0.88798 
 C                     0.45287   5.40252  -1.31628 
 H                    -0.02278   4.87666  -2.14513 
 H                    -0.3149    5.9599   -0.75716 
 H                     1.15399   6.12649  -1.73687 
 C                     3.73524   2.81634  -0.83947 
 C                     3.72108   1.09089   1.0919 
 C                     4.42105   3.32832  -1.69106 
 H                     5.01869   3.78434  -2.44626 
 C                     4.36324   0.32918   1.77398 
 H                     4.93236  -0.34298   2.37408 
 
                          Input orientation:                          
 ---------------------------------------------------------------------
 Center     Atomic      Atomic             Coordinates (Angstroms)
 Number     Number       Type             X           Y           Z
 ---------------------------------------------------------------------
      1          6           0       -0.639430    0.920274    0.807866
      2          6           0        0.730835    1.079345    0.907890
      3          6           0        1.398658    2.215522    0.409817
      4          6           0        0.609025    3.279755   -0.112761
      5          6           0       -0.778150    3.091010   -0.246336
      6          6           0       -1.383763    1.928720    0.200820
      7          1           0       -1.120783    0.023239    1.178278
      8          1           0        1.326263    0.282379    1.340830
      9          1           0       -1.396550    3.875167   -0.662819
     10          1           0       -2.458962    1.823250    0.099468
     11          7           0        1.194253    4.478076   -0.484866
     12          5           0        2.926495    2.087119    0.237174
     13          6           0        2.130729    5.149121    0.403231
     14          1           0        2.476233    4.473362    1.183541
     15          1           0        3.003393    5.506930   -0.149332
     16          1           0        1.641713    6.006077    0.887984
     17          6           0        0.452874    5.402523   -1.316276
     18          1           0       -0.022784    4.876659   -2.145133
     19          1           0       -0.314901    5.959904   -0.757155
     20          1           0        1.153994    6.126492   -1.736865
     21          6           0        3.735236    2.816342   -0.839468
     22          6           0        3.721079    1.090887    1.091902
     23          6           0        4.421048    3.328324   -1.691064
     24          1           0        5.018687    3.784344   -2.446261
     25          6           0        4.363242    0.329179    1.773981
     26          1           0        4.932360   -0.342984    2.374076
 ---------------------------------------------------------------------
                    Distance matrix (angstroms):
                    1          2          3          4          5
     1  C    0.000000
     2  C    1.383089   0.000000
     3  C    2.447430   1.408887   0.000000
     4  C    2.823711   2.428656   1.424500   0.000000
     5  C    2.417164   2.766960   2.436290   1.406315   0.000000
     6  C    1.392659   2.385982   2.804960   2.427928   1.384786
     7  H    1.083318   2.148711   3.426984   3.906906   3.399727
     8  H    2.134223   1.084955   2.146874   3.407583   3.851760
     9  H    3.386375   3.848313   3.423179   2.163194   1.082025
    10  H    2.151253   3.373684   3.889913   3.402792   2.133524
    11  N    4.206127   3.702148   2.441596   1.384531   2.423061
    12  B    3.795133   2.507268   1.542912   2.629734   3.868588
    13  C    5.071554   4.333297   3.023570   2.465027   3.622062
    14  H    4.740561   3.826454   2.618713   2.567404   3.813981
    15  H    5.934964   5.087804   3.704212   3.270267   4.488446
    16  H    5.574534   5.010268   3.828319   3.082331   3.954748
    17  C    5.078943   4.869707   3.745782   2.445194   2.829008
    18  H    4.975283   4.930364   3.953469   2.660793   2.713770
    19  H    5.287011   5.261729   4.280012   2.907246   2.950608
    20  H    6.066031   5.713798   4.468086   3.322441   3.894741
    21  C    5.044451   3.885466   2.716854   3.242846   4.560472
    22  C    4.373079   2.995923   2.669023   3.990894   5.102395
    23  C    6.136106   5.042831   3.845370   4.126126   5.401409
    24  H    7.127870   6.078900   4.870626   5.014474   6.238886
    25  C    5.129279   3.808838   3.769349   5.134183   6.176026
    26  H    5.923992   4.671781   4.784487   6.164400   7.160223
                    6          7          8          9         10
     6  C    0.000000
     7  H    2.157647   0.000000
     8  H    3.369615   2.466092   0.000000
     9  H    2.129482   4.278205   4.933198   0.000000
    10  H    1.085103   2.488894   4.271205   2.433139   0.000000
    11  N    3.689925   5.288763   4.577605   2.665976   4.553628
    12  B    4.313321   4.639584   2.652524   4.764013   5.393676
    13  C    4.771122   6.119452   5.021099   3.898861   5.676174
    14  H    4.726575   5.722075   4.348737   4.331897   5.705651
    15  H    5.672154   6.988723   5.685884   4.720786   6.593081
    16  H    5.123528   6.596211   5.750243   4.022040   5.910443
    17  C    4.212140   6.134810   5.834286   2.485999   4.826418
    18  H    4.005759   5.983841   5.922776   2.255543   4.505164
    19  H    4.279092   6.295978   6.271304   2.350530   4.737373
    20  H    5.274099   7.135991   6.607234   3.567536   5.911299
    21  C    5.298511   5.954296   4.120415   5.242856   6.343179
    22  C    5.249324   4.958927   2.539841   6.084520   6.301919
    23  C    6.263701   7.061770   5.296023   5.933024   7.266759
    24  H    7.172290   8.060787   6.343486   6.659143   8.138910
    25  C    6.169395   5.524762   3.068070   7.189383   7.181832
    26  H    7.055288   6.180986   3.802974   8.189666   8.031068
                   11         12         13         14         15
    11  N    0.000000
    12  B    3.039520   0.000000
    13  C    1.454649   3.168071   0.000000
    14  H    2.104062   2.606243   1.088534   0.000000
    15  H    2.108106   3.442442   1.093113   1.767119   0.000000
    16  H    2.102314   4.175219   1.099316   1.770026   1.783072
    17  C    1.447580   4.418587   2.415805   3.347597   2.806743
    18  H    2.096791   4.706928   3.347538   4.181842   3.679431
    19  H    2.132487   5.147213   2.825769   3.710328   3.403779
    20  H    2.070362   4.832714   2.547406   3.606927   2.514835
    21  C    3.056746   1.531335   3.092022   2.902304   2.872481
    22  C    4.510443   1.534406   4.412793   3.605437   4.642970
    23  C    3.631673   2.737221   3.598185   3.654692   3.022087
    24  H    4.353692   3.802455   4.280482   4.484895   3.507791
    25  C    5.688429   2.741600   5.485883   4.591696   5.688359
    26  H    6.737181   3.807262   6.472757   5.535984   6.656575
                   16         17         18         19         20
    16  H    0.000000
    17  C    2.576117   0.000000
    18  H    3.639496   1.090774   0.000000
    19  H    2.556746   1.101258   1.784723   0.000000
    20  H    2.672490   1.092060   1.764532   1.773481   0.000000
    21  C    4.188238   4.205898   4.480221   5.127608   4.292461
    22  C    5.340827   5.922051   6.231130   6.589042   6.320535
    23  C    4.641826   4.493236   4.727702   5.497873   4.301800
    24  H    5.239966   4.974135   5.167229   6.002774   4.574358
    25  C    6.357585   7.111926   7.434800   7.745756   7.498943
    26  H    7.303931   8.166722   8.498316   8.778653   8.545759
                   21         22         23         24         25
    21  C    0.000000
    22  C    2.589901   0.000000
    23  C    1.207344   3.638816   0.000000
    24  H    2.272896   4.632180   1.065575   0.000000
    25  C    3.662033   1.207396   4.583094   5.493470   0.000000
    26  H    4.662758   2.273138   5.501391   6.346490   1.065745
                   26
    26  H    0.000000
 Symmetry turned off by external request.
 Stoichiometry    C12H12BN
 Framework group  C1[X(C12H12BN)]
 Deg. of freedom    72
 Full point group                 C1      NOp   1
 Rotational constants (GHZ):           0.8318031           0.6648801           0.4115522
 General basis read from cards:  (5D, 7F)
 ======================================================================================================
                                       Pseudopotential Parameters
 ======================================================================================================
  Center     Atomic      Valence      Angular      Power
  Number     Number     Electrons     Momentum     of R      Exponent        Coefficient   SO-Coeffient
 ======================================================================================================
    1          6
                                   No pseudopotential on this center.
    2          6
                                   No pseudopotential on this center.
    3          6
                                   No pseudopotential on this center.
    4          6
                                   No pseudopotential on this center.
    5          6
                                   No pseudopotential on this center.
    6          6
                                   No pseudopotential on this center.
    7          1
                                   No pseudopotential on this center.
    8          1
                                   No pseudopotential on this center.
    9          1
                                   No pseudopotential on this center.
   10          1
                                   No pseudopotential on this center.
   11          7
                                   No pseudopotential on this center.
   12          5
                                   No pseudopotential on this center.
   13          6
                                   No pseudopotential on this center.
   14          1
                                   No pseudopotential on this center.
   15          1
                                   No pseudopotential on this center.
   16          1
                                   No pseudopotential on this center.
   17          6
                                   No pseudopotential on this center.
   18          1
                                   No pseudopotential on this center.
   19          1
                                   No pseudopotential on this center.
   20          1
                                   No pseudopotential on this center.
   21          6
                                   No pseudopotential on this center.
   22          6
                                   No pseudopotential on this center.
   23          6
                                   No pseudopotential on this center.
   24          1
                                   No pseudopotential on this center.
   25          6
                                   No pseudopotential on this center.
   26          1
                                   No pseudopotential on this center.
 ======================================================================================================
   392 basis functions,   612 primitive gaussians,   406 cartesian basis functions
    48 alpha electrons       48 beta electrons
       nuclear repulsion energy       770.8061955245 Hartrees.
 NAtoms=   26 NActive=   26 NUniq=   26 SFac= 1.00D+00 NAtFMM=   60 NAOKFM=F Big=F
 Integral buffers will be    131072 words long.
 Raffenetti 2 integral format.
 Two-electron integral symmetry is turned off.
 Nuclear repulsion after empirical dispersion term =      770.7881927675 Hartrees.
 ------------------------------------------------------------------------------
 Polarizable Continuum Model (PCM)
 =================================
 Model                : PCM.
 Atomic radii         : UFF (Universal Force Field).
 Polarization charges : Total charges.
 Charge compensation  : None.
 Solution method      : On-the-fly selection.
 Cavity type          : Scaled VdW (van der Waals Surface) (Alpha=1.100).
 Cavity algorithm     : GePol (No added spheres)
                        Default sphere list used, NSphG=   26.
                        Lebedev-Laikov grids with approx.  5.0 points / Ang**2.
                        Smoothing algorithm: York/Karplus (Gamma=1.0000).
                        Polarization charges: spherical gaussians, with
                                              point-specific exponents (IZeta= 3).
                        Self-potential: point-specific (ISelfS= 7).
                        Self-field    : sphere-specific E.n sum rule (ISelfD= 2).
 Solvent              : Toluene, Eps=   2.374100 Eps(inf)=   2.238315
 ------------------------------------------------------------------------------
 One-electron integrals computed using PRISM.
   1 Symmetry operations used in ECPInt.
 ECPInt:  NShTT=   10440 NPrTT=   35799 LenC2=    9951 LenP2D=   24599.
 LDataN:  DoStor=T MaxTD1= 4 Len=   56
 Number of processors reduced to 113 by ecpmxn.
 NBasis=   392 RedAO= T EigKep=  1.25D-06  NBF=   392
 NBsUse=   390 1.00D-06 EigRej=  8.56D-07 NBFU=   390
 ExpMin= 3.15D-02 ExpMax= 6.29D+03 ExpMxC= 9.49D+02 IAcc=3 IRadAn=         5 AccDes= 0.00D+00
 Harris functional with IExCor= 4639 and IRadAn=       5 diagonalized for initial guess.
 HarFok:  IExCor= 4639 AccDes= 0.00D+00 IRadAn=         5 IDoV= 1 UseB2=F ITyADJ=14
 ICtDFT=  3500011 ScaDFX=  1.000000  1.000000  1.000000  1.000000
 FoFCou: FMM=F IPFlag=           0 FMFlag=      100000 FMFlg1=           0
         NFxFlg=           0 DoJE=T BraDBF=F KetDBF=T FulRan=T
         wScrn=  0.000000 ICntrl=       500 IOpCl=  0 I1Cent=   200000004 NGrid=           0
         NMat0=    1 NMatS0=      1 NMatT0=    0 NMatD0=    1 NMtDS0=    0 NMtDT0=    0
 Symmetry not used in FoFCou.
 Requested convergence on RMS density matrix=1.00D-08 within 300 cycles.
 Requested convergence on MAX density matrix=1.00D-06.
 Requested convergence on             energy=1.00D-06.
 No special actions if energy rises.
 Inv3:  Mode=1 IEnd=    12916875.
 Iteration    1 A*A^-1 deviation from unit magnitude is 4.22D-15 for   2075.
 Iteration    1 A*A^-1 deviation from orthogonality  is 2.81D-15 for   2072   1295.
 Iteration    1 A^-1*A deviation from unit magnitude is 4.22D-15 for   2075.
 Iteration    1 A^-1*A deviation from orthogonality  is 1.58D-15 for   1777   1232.
 Error on total polarization charges =  0.00945
 SCF Done:  E(RwB97XD) =  -543.931161864     A.U. after   18 cycles
            NFock= 18  Conv=0.44D-08     -V/T= 2.0044

 **********************************************************************

            Population analysis using the SCF Density.

 **********************************************************************

 Alpha  occ. eigenvalues --  -14.45300 -10.33954 -10.31131 -10.30966 -10.29809
 Alpha  occ. eigenvalues --  -10.29472 -10.29169 -10.28974 -10.28584 -10.28109
 Alpha  occ. eigenvalues --  -10.27676 -10.27563 -10.27450  -6.87584  -1.05792
 Alpha  occ. eigenvalues --   -0.95462  -0.86695  -0.85359  -0.84871  -0.84792
 Alpha  occ. eigenvalues --   -0.81797  -0.76153  -0.71181  -0.68513  -0.66757
 Alpha  occ. eigenvalues --   -0.63403  -0.62196  -0.59551  -0.57506  -0.56431
 Alpha  occ. eigenvalues --   -0.56144  -0.53361  -0.52463  -0.50262  -0.49834
 Alpha  occ. eigenvalues --   -0.48782  -0.47977  -0.46871  -0.45837  -0.44026
 Alpha  occ. eigenvalues --   -0.42308  -0.40241  -0.37586  -0.36865  -0.36478
 Alpha  occ. eigenvalues --   -0.35733  -0.33478  -0.27754
 Alpha virt. eigenvalues --   -0.02568   0.03823   0.04701   0.04812   0.05576
 Alpha virt. eigenvalues --    0.05622   0.06089   0.06357   0.06676   0.07485
 Alpha virt. eigenvalues --    0.07832   0.07979   0.08570   0.08858   0.09578
 Alpha virt. eigenvalues --    0.09906   0.10330   0.10847   0.11190   0.12075
 Alpha virt. eigenvalues --    0.12727   0.13370   0.13768   0.14481   0.14882
 Alpha virt. eigenvalues --    0.15802   0.16003   0.16435   0.16761   0.16947
 Alpha virt. eigenvalues --    0.17283   0.17364   0.17949   0.18047   0.18518
 Alpha virt. eigenvalues --    0.18825   0.18944   0.19306   0.19477   0.19842
 Alpha virt. eigenvalues --    0.19927   0.20448   0.20666   0.20989   0.21821
 Alpha virt. eigenvalues --    0.21958   0.22058   0.22619   0.23150   0.23356
 Alpha virt. eigenvalues --    0.23822   0.24134   0.24547   0.25334   0.25491
 Alpha virt. eigenvalues --    0.25957   0.26390   0.26858   0.27354   0.27627
 Alpha virt. eigenvalues --    0.28125   0.28619   0.29006   0.29748   0.30072
 Alpha virt. eigenvalues --    0.30948   0.31169   0.31588   0.32146   0.32367
 Alpha virt. eigenvalues --    0.32576   0.32914   0.33527   0.34050   0.35225
 Alpha virt. eigenvalues --    0.35643   0.35996   0.36340   0.37038   0.37250
 Alpha virt. eigenvalues --    0.37893   0.38633   0.39017   0.39452   0.39954
 Alpha virt. eigenvalues --    0.40389   0.40518   0.41739   0.43323   0.43609
 Alpha virt. eigenvalues --    0.44305   0.46742   0.48080   0.48818   0.49163
 Alpha virt. eigenvalues --    0.49944   0.52594   0.53987   0.54913   0.57556
 Alpha virt. eigenvalues --    0.58918   0.59560   0.60575   0.61606   0.62593
 Alpha virt. eigenvalues --    0.62698   0.63771   0.64649   0.65468   0.66416
 Alpha virt. eigenvalues --    0.67391   0.67538   0.67928   0.68818   0.69068
 Alpha virt. eigenvalues --    0.69617   0.70956   0.71584   0.72573   0.72886
 Alpha virt. eigenvalues --    0.73470   0.74116   0.74675   0.75144   0.76484
 Alpha virt. eigenvalues --    0.77189   0.78183   0.79076   0.79797   0.80013
 Alpha virt. eigenvalues --    0.80411   0.81541   0.82844   0.83778   0.84644
 Alpha virt. eigenvalues --    0.84787   0.85095   0.86088   0.86334   0.87329
 Alpha virt. eigenvalues --    0.88419   0.88975   0.91177   0.92788   0.94333
 Alpha virt. eigenvalues --    0.94492   0.95531   0.96218   0.98888   0.99256
 Alpha virt. eigenvalues --    1.00420   1.00680   1.01249   1.02186   1.03893
 Alpha virt. eigenvalues --    1.04764   1.05473   1.05708   1.07890   1.08941
 Alpha virt. eigenvalues --    1.10524   1.12452   1.13002   1.14239   1.16382
 Alpha virt. eigenvalues --    1.17667   1.19939   1.21116   1.22302   1.23117
 Alpha virt. eigenvalues --    1.24263   1.25572   1.27821   1.29163   1.31650
 Alpha virt. eigenvalues --    1.32875   1.34767   1.36247   1.37145   1.37925
 Alpha virt. eigenvalues --    1.39470   1.41624   1.42284   1.43213   1.44275
 Alpha virt. eigenvalues --    1.48799   1.50582   1.52484   1.53665   1.56594
 Alpha virt. eigenvalues --    1.59103   1.59595   1.61125   1.61709   1.62091
 Alpha virt. eigenvalues --    1.63186   1.63342   1.65442   1.65814   1.66299
 Alpha virt. eigenvalues --    1.67159   1.68389   1.69326   1.70155   1.72592
 Alpha virt. eigenvalues --    1.73908   1.75242   1.76170   1.77706   1.78291
 Alpha virt. eigenvalues --    1.79907   1.80877   1.81060   1.82640   1.83761
 Alpha virt. eigenvalues --    1.85002   1.86586   1.87351   1.89528   1.91050
 Alpha virt. eigenvalues --    1.94753   1.94894   1.96523   1.97555   1.99846
 Alpha virt. eigenvalues --    2.01142   2.02194   2.02704   2.05112   2.06753
 Alpha virt. eigenvalues --    2.06933   2.07092   2.09507   2.10223   2.14143
 Alpha virt. eigenvalues --    2.14771   2.15589   2.18100   2.20387   2.21825
 Alpha virt. eigenvalues --    2.24993   2.26285   2.30607   2.31359   2.36431
 Alpha virt. eigenvalues --    2.38999   2.42054   2.43939   2.51237   2.53741
 Alpha virt. eigenvalues --    2.54907   2.55891   2.56346   2.57514   2.58773
 Alpha virt. eigenvalues --    2.59453   2.62593   2.64293   2.65515   2.66158
 Alpha virt. eigenvalues --    2.67476   2.69157   2.70961   2.72313   2.74171
 Alpha virt. eigenvalues --    2.75980   2.76875   2.77713   2.78533   2.78651
 Alpha virt. eigenvalues --    2.79246   2.80345   2.81654   2.82164   2.82496
 Alpha virt. eigenvalues --    2.84260   2.86287   2.88496   2.90306   2.90949
 Alpha virt. eigenvalues --    2.91676   2.92459   2.94277   2.95067   2.96113
 Alpha virt. eigenvalues --    2.96750   2.98644   3.03230   3.07585   3.08729
 Alpha virt. eigenvalues --    3.09715   3.11004   3.11917   3.12441   3.13442
 Alpha virt. eigenvalues --    3.16648   3.18275   3.19085   3.23608   3.27767
 Alpha virt. eigenvalues --    3.34426   3.35333   3.40353   3.47064   3.47283
 Alpha virt. eigenvalues --    3.54101   3.57005   3.60104   3.62184   3.64980
 Alpha virt. eigenvalues --    3.67713   3.68330   3.81487   3.86923   3.88754
 Alpha virt. eigenvalues --    3.90191   3.92014   3.94311   4.02563   4.06116
 Alpha virt. eigenvalues --    4.11210   4.16572   4.23710   4.26637   4.31999
 Alpha virt. eigenvalues --    4.93893   4.98453   5.16529  14.90461  23.65960
 Alpha virt. eigenvalues --   23.77119  23.79376  24.07737  24.08755  24.10597
 Alpha virt. eigenvalues --   24.11097  24.17523  24.23883  24.32784  25.17418
 Alpha virt. eigenvalues --   25.19846  35.73955
          Condensed to atoms (all electrons):
               1          2          3          4          5          6
     1  C    7.092960  -0.135043  -0.834092   0.635417  -0.999933   0.489613
     2  C   -0.135043  11.299020  -0.203819  -5.693150   0.280055  -0.141619
     3  C   -0.834092  -0.203819  14.686610  -3.857323  -4.628871   0.156626
     4  C    0.635417  -5.693150  -3.857323  16.023849   1.046346  -1.290259
     5  C   -0.999933   0.280055  -4.628871   1.046346  10.909037   0.016954
     6  C    0.489613  -0.141619   0.156626  -1.290259   0.016954   7.096741
     7  H    0.433878  -0.078976   0.029512   0.040869  -0.044115  -0.042901
     8  H   -0.104617   0.574203  -0.140124  -0.092416   0.052837   0.018559
     9  H   -0.006243   0.029609  -0.026556  -0.031953   0.482477  -0.094228
    10  H   -0.039459  -0.015584   0.018959   0.033220  -0.037270   0.365467
    11  N    0.040828   0.119601   0.393906  -0.106019  -0.752980  -0.084803
    12  B    0.073481   0.012452   0.289736  -0.061101   0.009458   0.046633
    13  C    0.012724   0.017190  -0.041241  -0.089704  -0.081189  -0.006825
    14  H   -0.011058  -0.035868   0.056207   0.034308  -0.005275   0.004938
    15  H    0.000733   0.037390   0.084590  -0.068353  -0.037581  -0.001341
    16  H    0.004661  -0.042495  -0.135111   0.089962   0.053122   0.005550
    17  C    0.009837   0.030899  -0.001955   0.022156  -0.159845  -0.259445
    18  H    0.008761   0.000966   0.001417   0.010777  -0.000437  -0.033688
    19  H   -0.001553  -0.016395  -0.057644  -0.026921   0.058915   0.035359
    20  H   -0.003332   0.008472   0.017391  -0.015156   0.022373  -0.005695
    21  C   -0.014710  -0.323380  -0.867628   1.033023   0.235008   0.004695
    22  C    0.061870   0.578341  -0.278536  -0.453230   0.036353   0.078387
    23  C    0.028207   0.986451   1.265493  -2.066464  -0.541112   0.050182
    24  H    0.000387   0.000541   0.001738  -0.005398  -0.006098   0.001473
    25  C   -0.164994  -1.224505  -0.440807   1.458860   0.240129  -0.022468
    26  H   -0.003809   0.002635  -0.009205   0.006186   0.002328  -0.000166
               7          8          9         10         11         12
     1  C    0.433878  -0.104617  -0.006243  -0.039459   0.040828   0.073481
     2  C   -0.078976   0.574203   0.029609  -0.015584   0.119601   0.012452
     3  C    0.029512  -0.140124  -0.026556   0.018959   0.393906   0.289736
     4  C    0.040869  -0.092416  -0.031953   0.033220  -0.106019  -0.061101
     5  C   -0.044115   0.052837   0.482477  -0.037270  -0.752980   0.009458
     6  C   -0.042901   0.018559  -0.094228   0.365467  -0.084803   0.046633
     7  H    0.465106  -0.012549   0.000759  -0.008151   0.001550   0.001059
     8  H   -0.012549   0.512650   0.000082   0.002321  -0.003416  -0.061983
     9  H    0.000759   0.000082   0.491796  -0.008469  -0.017142  -0.002609
    10  H   -0.008151   0.002321  -0.008469   0.465121  -0.005517  -0.002386
    11  N    0.001550  -0.003416  -0.017142  -0.005517   7.037141   0.010122
    12  B    0.001059  -0.061983  -0.002609  -0.002386   0.010122   4.217864
    13  C   -0.000168  -0.000245  -0.000867   0.000189   0.202403   0.046179
    14  H   -0.000261   0.002169  -0.001215   0.000062  -0.061409  -0.057402
    15  H    0.000029  -0.000100   0.000144   0.000042  -0.051762  -0.022024
    16  H    0.000027  -0.000024   0.000524  -0.000197  -0.082445   0.014137
    17  C   -0.000833   0.000341   0.012065   0.001267   0.271505  -0.032774
    18  H    0.000162  -0.000147  -0.007483  -0.000260  -0.048368  -0.010275
    19  H   -0.000111   0.000033  -0.008223   0.000676  -0.058052   0.008487
    20  H   -0.000103   0.000193   0.004820   0.000176  -0.054120  -0.007339
    21  C   -0.001707   0.019924   0.003278   0.000665  -0.037536   0.640665
    22  C   -0.004682   0.053751  -0.003369   0.000741  -0.000710   0.796025
    23  C   -0.001256  -0.006397  -0.003374   0.000624   0.016331  -0.305495
    24  H    0.000000  -0.000365  -0.000147   0.000000   0.003369  -0.007781
    25  C    0.004967  -0.071477  -0.000481   0.000066  -0.052425  -0.427418
    26  H   -0.000026   0.000722   0.000021  -0.000008  -0.000167  -0.007772
              13         14         15         16         17         18
     1  C    0.012724  -0.011058   0.000733   0.004661   0.009837   0.008761
     2  C    0.017190  -0.035868   0.037390  -0.042495   0.030899   0.000966
     3  C   -0.041241   0.056207   0.084590  -0.135111  -0.001955   0.001417
     4  C   -0.089704   0.034308  -0.068353   0.089962   0.022156   0.010777
     5  C   -0.081189  -0.005275  -0.037581   0.053122  -0.159845  -0.000437
     6  C   -0.006825   0.004938  -0.001341   0.005550  -0.259445  -0.033688
     7  H   -0.000168  -0.000261   0.000029   0.000027  -0.000833   0.000162
     8  H   -0.000245   0.002169  -0.000100  -0.000024   0.000341  -0.000147
     9  H   -0.000867  -0.001215   0.000144   0.000524   0.012065  -0.007483
    10  H    0.000189   0.000062   0.000042  -0.000197   0.001267  -0.000260
    11  N    0.202403  -0.061409  -0.051762  -0.082445   0.271505  -0.048368
    12  B    0.046179  -0.057402  -0.022024   0.014137  -0.032774  -0.010275
    13  C    5.344760   0.379296   0.393752   0.440870  -0.089139   0.004376
    14  H    0.379296   0.556125  -0.022892  -0.042463   0.003564  -0.000791
    15  H    0.393752  -0.022892   0.534785  -0.051449  -0.015209  -0.002299
    16  H    0.440870  -0.042463  -0.051449   0.576716   0.012257   0.001658
    17  C   -0.089139   0.003564  -0.015209   0.012257   5.346485   0.438279
    18  H    0.004376  -0.000791  -0.002299   0.001658   0.438279   0.532535
    19  H   -0.008305  -0.004775   0.000929   0.010020   0.414760  -0.045585
    20  H    0.003668   0.006043   0.004337  -0.009782   0.393731  -0.014781
    21  C    0.057955  -0.009109  -0.046495   0.016244   0.031603   0.006411
    22  C    0.015378  -0.004731  -0.004884   0.004081  -0.006196   0.000798
    23  C   -0.095390  -0.003213   0.076512  -0.024022  -0.009932  -0.005838
    24  H   -0.000484   0.000824  -0.000903   0.000197   0.000497   0.000111
    25  C   -0.003091   0.001554  -0.008592   0.008331  -0.008852  -0.000411
    26  H   -0.000672   0.000538  -0.000060   0.000028  -0.000064  -0.000020
              19         20         21         22         23         24
     1  C   -0.001553  -0.003332  -0.014710   0.061870   0.028207   0.000387
     2  C   -0.016395   0.008472  -0.323380   0.578341   0.986451   0.000541
     3  C   -0.057644   0.017391  -0.867628  -0.278536   1.265493   0.001738
     4  C   -0.026921  -0.015156   1.033023  -0.453230  -2.066464  -0.005398
     5  C    0.058915   0.022373   0.235008   0.036353  -0.541112  -0.006098
     6  C    0.035359  -0.005695   0.004695   0.078387   0.050182   0.001473
     7  H   -0.000111  -0.000103  -0.001707  -0.004682  -0.001256   0.000000
     8  H    0.000033   0.000193   0.019924   0.053751  -0.006397  -0.000365
     9  H   -0.008223   0.004820   0.003278  -0.003369  -0.003374  -0.000147
    10  H    0.000676   0.000176   0.000665   0.000741   0.000624   0.000000
    11  N   -0.058052  -0.054120  -0.037536  -0.000710   0.016331   0.003369
    12  B    0.008487  -0.007339   0.640665   0.796025  -0.305495  -0.007781
    13  C   -0.008305   0.003668   0.057955   0.015378  -0.095390  -0.000484
    14  H   -0.004775   0.006043  -0.009109  -0.004731  -0.003213   0.000824
    15  H    0.000929   0.004337  -0.046495  -0.004884   0.076512  -0.000903
    16  H    0.010020  -0.009782   0.016244   0.004081  -0.024022   0.000197
    17  C    0.414760   0.393731   0.031603  -0.006196  -0.009932   0.000497
    18  H   -0.045585  -0.014781   0.006411   0.000798  -0.005838   0.000111
    19  H    0.560282  -0.039916  -0.001573   0.001532  -0.002458   0.000104
    20  H   -0.039916   0.497261   0.011591  -0.001426  -0.004429  -0.000751
    21  C   -0.001573   0.011591   7.600529   0.355391  -2.107734   0.020247
    22  C    0.001532  -0.001426   0.355391   8.522207  -0.264667  -0.005461
    23  C   -0.002458  -0.004429  -2.107734  -0.264667   8.596244   0.314193
    24  H    0.000104  -0.000751   0.020247  -0.005461   0.314193   0.356379
    25  C    0.000641  -0.001364  -0.346165  -3.445853   0.029292   0.012259
    26  H    0.000006  -0.000007  -0.007057   0.007322   0.008338   0.000109
              25         26
     1  C   -0.164994  -0.003809
     2  C   -1.224505   0.002635
     3  C   -0.440807  -0.009205
     4  C    1.458860   0.006186
     5  C    0.240129   0.002328
     6  C   -0.022468  -0.000166
     7  H    0.004967  -0.000026
     8  H   -0.071477   0.000722
     9  H   -0.000481   0.000021
    10  H    0.000066  -0.000008
    11  N   -0.052425  -0.000167
    12  B   -0.427418  -0.007772
    13  C   -0.003091  -0.000672
    14  H    0.001554   0.000538
    15  H   -0.008592  -0.000060
    16  H    0.008331   0.000028
    17  C   -0.008852  -0.000064
    18  H   -0.000411  -0.000020
    19  H    0.000641   0.000006
    20  H   -0.001364  -0.000007
    21  C   -0.346165  -0.007057
    22  C   -3.445853   0.007322
    23  C    0.029292   0.008338
    24  H    0.012259   0.000109
    25  C   10.513605   0.337090
    26  H    0.337090   0.350809
 Mulliken charges:
               1
     1  C   -0.574515
     2  C   -0.066991
     3  C    0.520727
     4  C   -0.577524
     5  C   -0.150684
     6  C   -0.387742
     7  H    0.217920
     8  H    0.256074
     9  H    0.186784
    10  H    0.227703
    11  N    0.320113
    12  B   -0.159938
    13  C   -0.501422
    14  H    0.214835
    15  H    0.200698
    16  H    0.149605
    17  C   -0.405001
    18  H    0.164135
    19  H    0.179767
    20  H    0.188144
    21  C   -0.274137
    22  C   -0.038432
    23  C    0.069914
    24  H    0.314959
    25  C   -0.387892
    26  H    0.312900
 Sum of Mulliken charges =  -0.00000
 Mulliken charges with hydrogens summed into heavy atoms:
               1
     1  C   -0.356595
     2  C    0.189082
     3  C    0.520727
     4  C   -0.577524
     5  C    0.036100
     6  C   -0.160039
    11  N    0.320113
    12  B   -0.159938
    13  C    0.063717
    17  C    0.127045
    21  C   -0.274137
    22  C   -0.038432
    23  C    0.384873
    25  C   -0.074992
 Electronic spatial extent (au):  <R**2>=           6273.6167
 Charge=             -0.0000 electrons
 Dipole moment (field-independent basis, Debye):
    X=             -0.9517    Y=              2.1071    Z=             -0.3886  Tot=              2.3445
 Quadrupole moment (field-independent basis, Debye-Ang):
   XX=            -78.8127   YY=            -60.6234   ZZ=            -80.1871
   XY=              0.3324   XZ=              0.6863   YZ=             -9.1467
 Traceless Quadrupole moment (field-independent basis, Debye-Ang):
   XX=             -5.6050   YY=             12.5843   ZZ=             -6.9794
   XY=              0.3324   XZ=              0.6863   YZ=             -9.1467
 Octapole moment (field-independent basis, Debye-Ang**2):
  XXX=           -384.7297  YYY=           -545.0655  ZZZ=            -25.9885  XYY=            -97.5475
  XXY=           -216.9440  XXZ=             -8.9396  XZZ=           -104.3631  YZZ=           -219.5046
  YYZ=            -40.3646  XYZ=            -26.0167
 Hexadecapole moment (field-independent basis, Debye-Ang**3):
 XXXX=          -3062.9705 YYYY=          -4408.5228 ZZZZ=           -553.6132 XXXY=           -979.1929
 XXXZ=            -68.3292 YYYX=           -783.5798 YYYZ=             63.1515 ZZZX=            -58.6480
 ZZZY=            163.7970 XXYY=          -1227.6270 XXZZ=           -469.3173 YYZZ=           -882.0176
 XXYZ=           -102.8291 YYXZ=            -99.1305 ZZXY=           -278.9794
 N-N= 7.707881927675D+02 E-N=-2.804347389113D+03  KE= 5.415614752849D+02
 Breneman (CHELPG) radii used.
 Generate Potential Derived Charges using the Breneman model, NDens= 1.
 Grid spacing= 0.300 Box extension= 2.800
 NStep X,Y,Z=   45     42     36   Total possible points=       68040
 Number of Points to Fit=   17166

 **********************************************************************

            Electrostatic Properties Using The SCF Density.

 **********************************************************************

       Atomic Center    1 is at  -0.639430  0.920274  0.807866
       Atomic Center    2 is at   0.730835  1.079345  0.907890
       Atomic Center    3 is at   1.398658  2.215522  0.409817
       Atomic Center    4 is at   0.609025  3.279755 -0.112761
       Atomic Center    5 is at  -0.778150  3.091010 -0.246336
       Atomic Center    6 is at  -1.383763  1.928720  0.200820
       Atomic Center    7 is at  -1.120783  0.023239  1.178278
       Atomic Center    8 is at   1.326263  0.282379  1.340830
       Atomic Center    9 is at  -1.396550  3.875167 -0.662819
       Atomic Center   10 is at  -2.458962  1.823250  0.099468
       Atomic Center   11 is at   1.194253  4.478076 -0.484866
       Atomic Center   12 is at   2.926495  2.087119  0.237174
       Atomic Center   13 is at   2.130729  5.149121  0.403231
       Atomic Center   14 is at   2.476233  4.473362  1.183541
       Atomic Center   15 is at   3.003393  5.506930 -0.149332
       Atomic Center   16 is at   1.641713  6.006077  0.887984
       Atomic Center   17 is at   0.452874  5.402523 -1.316276
       Atomic Center   18 is at  -0.022784  4.876659 -2.145133
       Atomic Center   19 is at  -0.314901  5.959904 -0.757155
       Atomic Center   20 is at   1.153994  6.126492 -1.736865
       Atomic Center   21 is at   3.735236  2.816342 -0.839468
       Atomic Center   22 is at   3.721079  1.090887  1.091902
       Atomic Center   23 is at   4.421048  3.328324 -1.691064
       Atomic Center   24 is at   5.018687  3.784344 -2.446261
       Atomic Center   25 is at   4.363242  0.329179  1.773981
       Atomic Center   26 is at   4.932360 -0.342984  2.374076
   17166 points will be used for fitting atomic charges
 Fitting point charges to electrostatic potential
 Charges from ESP fit, RMS=   0.00454 RRMS=   0.30270:
 ESP charges:
               1
     1  C   -0.211559
     2  C    0.033797
     3  C   -0.415296
     4  C    0.435564
     5  C   -0.278539
     6  C   -0.015093
     7  H    0.111526
     8  H    0.060306
     9  H    0.130064
    10  H    0.094386
    11  N   -0.322908
    12  B    0.661661
    13  C    0.137656
    14  H   -0.016684
    15  H    0.041858
    16  H   -0.004099
    17  C   -0.146063
    18  H    0.065763
    19  H    0.082783
    20  H    0.097341
    21  C   -0.316558
    22  C   -0.252737
    23  C   -0.207823
    24  H    0.234066
    25  C   -0.242444
    26  H    0.243032
 Sum of ESP charges =   0.00000
 ESP charges with hydrogens summed into heavy atoms:
               1
     1  C   -0.100033
     2  C    0.094103
     3  C   -0.415296
     4  C    0.435564
     5  C   -0.148476
     6  C    0.079293
    11  N   -0.322908
    12  B    0.661661
    13  C    0.158731
    17  C    0.099824
    21  C   -0.316558
    22  C   -0.252737
    23  C    0.026243
    25  C    0.000588
 Charge=   0.00000 Dipole=    -0.7805     1.9977    -0.4044 Tot=     2.1826
 -----------------------------------------------------------------

              Electrostatic Properties (Atomic Units)

 -----------------------------------------------------------------
    Center     Electric         -------- Electric Field --------
               Potential          X             Y             Z
 -----------------------------------------------------------------
    1 Atom    -14.785549
    2 Atom    -14.776003
    3 Atom    -14.791676
    4 Atom    -14.725671
    5 Atom    -14.778081
    6 Atom    -14.768122
    7 Atom     -1.110955
    8 Atom     -1.116565
    9 Atom     -1.099990
   10 Atom     -1.101499
   11 Atom    -18.369807
   12 Atom    -11.442716
   13 Atom    -14.745623
   14 Atom     -1.107470
   15 Atom     -1.117107
   16 Atom     -1.111808
   17 Atom    -14.740832
   18 Atom     -1.103598
   19 Atom     -1.106645
   20 Atom     -1.102877
   21 Atom    -14.806719
   22 Atom    -14.806772
   23 Atom    -14.786340
   24 Atom     -1.035287
   25 Atom    -14.785853
   26 Atom     -1.035517
 -----------------------------------------------------------------
 Unable to Open any file for archive entry.
 1\1\GINC-IRENE4945\SP\RwB97XD\GenECP\C12H12B1N1\PENASFRA\09-Apr-2024\0
 \\# wb97xd/genecp scrf=(solvent=toluene,pcm) nosymm pop=(chelpg) scfcy
 c=300\\ethy_dimethylaniline_chelpg\\0,1\C,0,-0.63943,0.920274,0.807866
 \C,0,0.730835,1.079345,0.90789\C,0,1.398658,2.215522,0.409817\C,0,0.60
 9025,3.279755,-0.112761\C,0,-0.77815,3.09101,-0.246336\C,0,-1.383763,1
 .92872,0.20082\H,0,-1.120783,0.023239,1.178278\H,0,1.326263,0.282379,1
 .34083\H,0,-1.39655,3.875167,-0.662819\H,0,-2.458962,1.82325,0.099468\
 N,0,1.194253,4.478076,-0.484866\B,0,2.926495,2.087119,0.237174\C,0,2.1
 30729,5.149121,0.403231\H,0,2.476233,4.473362,1.183541\H,0,3.003393,5.
 50693,-0.149332\H,0,1.641713,6.006077,0.887984\C,0,0.452874,5.402523,-
 1.316276\H,0,-0.022784,4.876659,-2.145133\H,0,-0.314901,5.959904,-0.75
 7155\H,0,1.153994,6.126492,-1.736865\C,0,3.735236,2.816342,-0.839468\C
 ,0,3.721079,1.090887,1.091902\C,0,4.421048,3.328324,-1.691064\H,0,5.01
 8687,3.784344,-2.446261\C,0,4.363242,0.329179,1.773981\H,0,4.93236,-0.
 342984,2.374076\\Version=AS64L-G16RevC.02\HF=-543.9311619\RMSD=4.424e-
 09\Dipole=-0.3744441,0.8289878,-0.1528802\Quadrupole=-4.1671669,9.3561
 454,-5.1889786,0.2471623,0.5102526,-6.8003196\PG=C01 [X(C12H12B1N1)]\\
 @
 The archive entry for this job was punched.


 THERE ARE PEOPLE SO ADDICTED TO EXAGERATING THEY
 CAN'T TELL THE TRUTH WITHOUT LYING. -- FORTUNE COOKIE
 Job cpu time:       0 days  0 hours 52 minutes 19.4 seconds.
 Elapsed time:       0 days  0 hours  0 minutes 32.9 seconds.
 File lengths (MBytes):  RWF=    156 Int=      0 D2E=      0 Chk=     11 Scr=      1
 Normal termination of Gaussian 16 at Tue Apr  9 16:12:03 2024.
