 Entering Gaussian System, Link 0=/ccc/products/gaussian-16-C.02/system/default/g16/g16
 Input=f_benzopiperidine_chelpg.gjf
 Output=f_benzopiperidine_chelpg.log
 Initial command:
 /ccc/products/gaussian-16-C.02/system/default/g16/l1.exe "/ccc/scratch/cont003/gen7343/penasfra/flp/b-n_flp/f_benzopiperidine/reac/Gau-775967.inp" -scrdir="/ccc/scratch/cont003/gen7343/penasfra/flp/b-n_flp/f_benzopiperidine/reac/"
 Entering Link 1 = /ccc/products/gaussian-16-C.02/system/default/g16/l1.exe PID=    776017.
  
 Copyright (c) 1988-2021, Gaussian, Inc.  All Rights Reserved.
  
 This is part of the Gaussian(R) 16 program.  It is based on
 the Gaussian(R) 09 system (copyright 2009, Gaussian, Inc.),
 the Gaussian(R) 03 system (copyright 2003, Gaussian, Inc.),
 the Gaussian(R) 98 system (copyright 1998, Gaussian, Inc.),
 the Gaussian(R) 94 system (copyright 1995, Gaussian, Inc.),
 the Gaussian 92(TM) system (copyright 1992, Gaussian, Inc.),
 the Gaussian 90(TM) system (copyright 1990, Gaussian, Inc.),
 the Gaussian 88(TM) system (copyright 1988, Gaussian, Inc.),
 the Gaussian 86(TM) system (copyright 1986, Carnegie Mellon
 University), and the Gaussian 82(TM) system (copyright 1983,
 Carnegie Mellon University). Gaussian is a federally registered
 trademark of Gaussian, Inc.
  
 This software contains proprietary and confidential information,
 including trade secrets, belonging to Gaussian, Inc.
  
 This software is provided under written license and may be
 used, copied, transmitted, or stored only in accord with that
 written license.
  
 The following legend is applicable only to US Government
 contracts under FAR:
  
                    RESTRICTED RIGHTS LEGEND
  
 Use, reproduction and disclosure by the US Government is
 subject to restrictions as set forth in subparagraphs (a)
 and (c) of the Commercial Computer Software - Restricted
 Rights clause in FAR 52.227-19.
  
 Gaussian, Inc.
 340 Quinnipiac St., Bldg. 40, Wallingford CT 06492
  
  
 ---------------------------------------------------------------
 Warning -- This program may not be used in any manner that
 competes with the business of Gaussian, Inc. or will provide
 assistance to any competitor of Gaussian, Inc.  The licensee
 of this program is prohibited from giving any competitor of
 Gaussian, Inc. access to this program.  By using this program,
 the user acknowledges that Gaussian, Inc. is engaged in the
 business of creating and licensing software in the field of
 computational chemistry and represents and warrants to the
 licensee that it is not a competitor of Gaussian, Inc. and that
 it will not use this program in any manner prohibited above.
 ---------------------------------------------------------------
  

 Cite this work as:
 Gaussian 16, Revision C.02,
 M. J. Frisch, G. W. Trucks, H. B. Schlegel, G. E. Scuseria, 
 M. A. Robb, J. R. Cheeseman, G. Scalmani, V. Barone, 
 G. A. Petersson, H. Nakatsuji, X. Li, M. Caricato, A. V. Marenich, 
 J. Bloino, B. G. Janesko, R. Gomperts, B. Mennucci, H. P. Hratchian, 
 J. V. Ortiz, A. F. Izmaylov, J. L. Sonnenberg, D. Williams-Young, 
 F. Ding, F. Lipparini, F. Egidi, J. Goings, B. Peng, A. Petrone, 
 T. Henderson, D. Ranasinghe, V. G. Zakrzewski, J. Gao, N. Rega, 
 G. Zheng, W. Liang, M. Hada, M. Ehara, K. Toyota, R. Fukuda, 
 J. Hasegawa, M. Ishida, T. Nakajima, Y. Honda, O. Kitao, H. Nakai, 
 T. Vreven, K. Throssell, J. A. Montgomery, Jr., J. E. Peralta, 
 F. Ogliaro, M. J. Bearpark, J. J. Heyd, E. N. Brothers, K. N. Kudin, 
 V. N. Staroverov, T. A. Keith, R. Kobayashi, J. Normand, 
 K. Raghavachari, A. P. Rendell, J. C. Burant, S. S. Iyengar, 
 J. Tomasi, M. Cossi, J. M. Millam, M. Klene, C. Adamo, R. Cammi, 
 J. W. Ochterski, R. L. Martin, K. Morokuma, O. Farkas, 
 J. B. Foresman, and D. J. Fox, Gaussian, Inc., Wallingford CT, 2019.
 
 ******************************************
 Gaussian 16:  AS64L-G16RevC.02  7-Dec-2021
                10-Apr-2024 
 ******************************************
 %nprocshared=128
 Will use up to  128 processors via shared memory.
 %mem=30GB
 %chk=f_benzopiperidine_chelpg.chk
 ----------------------------------------------------------------------
 # wb97xd/genecp scrf=(solvent=toluene,pcm) nosymm pop=(chelpg) scfcyc=
 300
 ----------------------------------------------------------------------
 1/38=1,172=1/1;
 2/12=2,15=1,17=6,18=5,40=1/2;
 3/5=7,11=2,16=1,17=8,25=1,30=1,70=2201,72=13,74=-58/1,2,3;
 4//1;
 5/5=2,7=300,38=5,53=13/2;
 6/7=2,8=2,9=2,10=2,15=8,20=3,28=1/1,2;
 99/5=1,9=1/99;
 ------------------------
 f_benzopiperidine_chelpg
 ------------------------
 Symbolic Z-matrix:
 Charge =  0 Multiplicity = 1
 C                    -0.6027    0.95575   0.70617 
 C                     0.77661   1.06141   0.78533 
 C                     1.46911   2.1754    0.28669 
 C                     0.7255    3.24751  -0.27041 
 C                    -0.66722   3.11981  -0.36255 
 C                    -1.31675   1.98934   0.11261 
 H                    -1.11143   0.07935   1.08911 
 H                     1.34585   0.24655   1.21895 
 H                    -1.25682   3.92286  -0.7849 
 H                    -2.39709   1.92824   0.03409 
 B                     3.00626   2.05241   0.24678 
 C                     0.66717   5.2607   -1.66194 
 C                     2.09471   5.18223   0.29026 
 C                     1.64565   6.19117  -2.37418 
 C                     3.11825   6.10921  -0.35079 
 C                     2.44576   7.02273  -1.37388 
 H                     1.08752   6.83809  -3.05726 
 H                     2.32804   5.58424  -2.97877 
 H                     3.60794   6.69739   0.43082 
 H                     3.88488   5.50035  -0.83932 
 H                     3.18909   7.63485  -1.89175 
 H                     1.76925   7.71323  -0.85386 
 N                     1.37832   4.40156  -0.72388 
 H                     2.57881   4.50939   0.99583 
 H                     1.36665   5.78139   0.86699 
 H                    -0.10076   5.86715  -1.14734 
 H                     0.15792   4.63203  -2.39498 
 F                     3.82931   2.84176  -0.43969 
 F                     3.61894   1.05382   0.89587 
 
                          Input orientation:                          
 ---------------------------------------------------------------------
 Center     Atomic      Atomic             Coordinates (Angstroms)
 Number     Number       Type             X           Y           Z
 ---------------------------------------------------------------------
      1          6           0       -0.602698    0.955754    0.706174
      2          6           0        0.776607    1.061415    0.785332
      3          6           0        1.469112    2.175401    0.286687
      4          6           0        0.725496    3.247514   -0.270408
      5          6           0       -0.667224    3.119811   -0.362548
      6          6           0       -1.316753    1.989344    0.112608
      7          1           0       -1.111430    0.079352    1.089113
      8          1           0        1.345854    0.246547    1.218945
      9          1           0       -1.256823    3.922855   -0.784897
     10          1           0       -2.397089    1.928238    0.034086
     11          5           0        3.006265    2.052410    0.246777
     12          6           0        0.667174    5.260697   -1.661935
     13          6           0        2.094715    5.182233    0.290256
     14          6           0        1.645652    6.191166   -2.374177
     15          6           0        3.118247    6.109206   -0.350787
     16          6           0        2.445755    7.022730   -1.373884
     17          1           0        1.087522    6.838093   -3.057256
     18          1           0        2.328043    5.584241   -2.978770
     19          1           0        3.607944    6.697385    0.430821
     20          1           0        3.884878    5.500347   -0.839317
     21          1           0        3.189089    7.634847   -1.891745
     22          1           0        1.769245    7.713227   -0.853862
     23          7           0        1.378315    4.401557   -0.723883
     24          1           0        2.578809    4.509386    0.995830
     25          1           0        1.366650    5.781390    0.866991
     26          1           0       -0.100763    5.867150   -1.147343
     27          1           0        0.157922    4.632026   -2.394977
     28          9           0        3.829305    2.841763   -0.439693
     29          9           0        3.618939    1.053820    0.895866
 ---------------------------------------------------------------------
                    Distance matrix (angstroms):
                    1          2          3          4          5
     1  C    0.000000
     2  C    1.385609   0.000000
     3  C    2.440472   1.403273   0.000000
     4  C    2.823115   2.428215   1.418713   0.000000
     5  C    2.414430   2.763923   2.424324   1.401594   0.000000
     6  C    1.389426   2.386580   2.797493   2.429089   1.387666
     7  H    1.083296   2.149748   3.420015   3.906385   3.398386
     8  H    2.136063   1.084469   2.145874   3.407172   3.848279
     9  H    3.384503   3.845555   3.410661   2.156472   1.082075
    10  H    2.148783   3.374626   3.882320   3.403490   2.137662
    11  B    3.799778   2.498697   1.542582   2.626340   3.873647
    12  C    5.074746   4.861590   3.736212   2.447990   2.837678
    13  C    5.031118   4.354727   3.071226   2.435620   3.508282
    14  C    6.477127   6.087042   4.820553   3.733312   4.339270
    15  C    6.443653   5.679281   4.312869   3.731086   4.823527
    16  C    7.101261   6.556336   5.216122   4.292925   5.093743
    17  H    7.184856   6.944938   5.750501   4.559588   4.915914
    18  H    6.602344   6.085341   4.798037   3.919652   4.678638
    19  H    7.125423   6.317144   5.004370   4.549927   5.630767
    20  H    6.571165   5.657292   4.261347   3.921812   5.159059
    21  H    8.107843   7.496454   6.124495   5.286465   6.131488
    22  H    7.329616   6.922347   5.662018   4.623032   5.222762
    23  N    4.224102   3.714341   2.446480   1.401295   2.440833
    24  H    4.778513   3.896248   2.679888   2.574966   3.783231
    25  H    5.214495   4.757413   3.653821   2.850488   3.568251
    26  H    5.273450   5.253580   4.260277   2.883437   2.912843
    27  H    4.869359   4.821452   3.865947   2.598616   2.664287
    28  F    4.951029   3.740226   2.557768   3.134792   4.505778
    29  F    4.227034   2.844491   2.500160   3.813725   4.921699
                    6          7          8          9         10
     6  C    0.000000
     7  H    2.154945   0.000000
     8  H    3.369095   2.466385   0.000000
     9  H    2.132504   4.278501   4.929965   0.000000
    10  H    1.084908   2.486841   4.271018   2.439147   0.000000
    11  B    4.325559   4.643049   2.638791   4.768316   5.408964
    12  C    4.217430   6.130092   5.822523   2.502155   4.834406
    13  C    4.675918   6.079221   5.077820   3.738288   5.552514
    14  C    5.710976   7.546532   6.952618   4.011908   6.349491
    15  C    6.071015   7.504840   6.322674   4.910175   6.931634
    16  C    6.457639   8.181101   7.338201   4.864691   7.168638
    17  H    6.272076   8.228508   7.861368   4.377006   6.767982
    18  H    5.980338   7.660382   6.861230   4.519352   6.691079
    19  H    6.820524   8.155011   6.881243   5.730789   7.678710
    20  H    6.347462   7.620310   6.187528   5.378525   7.279142
    21  H    7.496115   9.190510   8.225624   5.896620   8.214597
    22  H    6.574214   8.387460   7.760612   4.850646   7.184211
    23  N    3.712395   5.307282   4.586910   2.678961   4.576625
    24  H    4.722933   5.766434   4.443169   4.269318   5.687428
    25  H    4.706310   6.221210   5.546061   3.614623   5.450343
    26  H    4.254819   6.286636   6.267631   2.290879   4.709980
    27  H    3.930193   5.871710   5.805518   2.257606   4.442848
    28  F    5.245338   5.863363   3.956483   5.211202   6.310862
    29  F    5.084265   4.833562   2.433718   5.901642   6.140022
                   11         12         13         14         15
    11  B    0.000000
    12  C    4.405410   0.000000
    13  C    3.260154   2.419727   0.000000
    14  C    5.084286   1.526591   2.884234   0.000000
    15  C    4.102099   2.906344   1.522443   2.503869   0.000000
    16  C    5.257832   2.520136   2.505997   1.527170   1.527579
    17  H    6.123804   2.147508   3.868093   1.093902   3.461227
    18  H    4.830939   2.144113   3.301906   1.095239   2.793977
    19  H    4.687396   3.884820   2.145998   3.460471   1.093924
    20  H    3.720192   3.329828   2.140518   2.801278   1.094118
    21  H    5.980828   3.471233   3.460361   2.167753   2.169597
    22  H    5.898006   2.807569   2.796581   2.154832   2.155406
    23  N    3.018426   1.457321   1.466684   2.449008   2.466299
    24  H    2.603945   3.358948   1.088533   3.880221   2.159582
    25  H    4.120473   2.675043   1.105301   3.278861   2.158365
    26  H    5.113652   1.105585   2.712181   2.158720   3.324924
    27  H    4.663297   1.091749   3.356244   2.155154   3.888997
    28  F    1.331057   4.164636   3.003236   4.441742   3.345100
    29  F    1.339354   5.740477   4.442276   6.401513   5.230847
                   16         17         18         19         20
    16  C    0.000000
    17  H    2.170859   0.000000
    18  H    2.158417   1.765559   0.000000
    19  H    2.171058   4.305695   3.808221   0.000000
    20  H    2.162056   3.812351   2.647269   1.767157   0.000000
    21  H    1.093349   2.531762   2.475481   2.539407   2.479479
    22  H    1.097668   2.466891   3.059423   2.462348   3.061528
    23  N    2.903873   3.386133   2.717580   3.402266   2.739256
    24  H    3.456898   4.906559   4.125002   2.483081   2.460810
    25  H    2.779733   4.073604   3.969008   2.460222   3.054823
    26  H    2.805609   2.450004   3.055039   4.115143   4.014319
    27  H    3.462987   2.483848   2.440687   4.914620   4.130891
    28  F    4.501934   5.508145   4.027640   3.958866   2.689025
    29  F    6.492766   7.449366   6.099503   5.662704   4.780501
                   21         22         23         24         25
    21  H    0.000000
    22  H    1.760483   0.000000
    23  N    3.885482   3.337196   0.000000
    24  H    4.298725   3.786998   2.100054   0.000000
    25  H    3.790410   2.618284   2.105933   1.761795   0.000000
    26  H    3.808151   2.644062   2.124842   3.690098   2.493631
    27  H    4.296295   3.803314   2.082074   4.168130   3.663673
    28  F    5.048959   5.305332   2.919088   2.530896   4.051358
    29  F    7.159990   7.129559   4.341811   3.610097   5.236751
                   26         27         28         29
    26  H    0.000000
    27  H    1.774553   0.000000
    28  F    5.009907   4.528491   0.000000
    29  F    6.417089   5.967566   2.241587   0.000000
 Symmetry turned off by external request.
 Stoichiometry    C11H14BF2N
 Framework group  C1[X(C11H14BF2N)]
 Deg. of freedom    81
 Full point group                 C1      NOp   1
 Rotational constants (GHZ):           0.8793752           0.4777849           0.3345380
 General basis read from cards:  (5D, 7F)
 ======================================================================================================
                                       Pseudopotential Parameters
 ======================================================================================================
  Center     Atomic      Valence      Angular      Power
  Number     Number     Electrons     Momentum     of R      Exponent        Coefficient   SO-Coeffient
 ======================================================================================================
    1          6
                                   No pseudopotential on this center.
    2          6
                                   No pseudopotential on this center.
    3          6
                                   No pseudopotential on this center.
    4          6
                                   No pseudopotential on this center.
    5          6
                                   No pseudopotential on this center.
    6          6
                                   No pseudopotential on this center.
    7          1
                                   No pseudopotential on this center.
    8          1
                                   No pseudopotential on this center.
    9          1
                                   No pseudopotential on this center.
   10          1
                                   No pseudopotential on this center.
   11          5
                                   No pseudopotential on this center.
   12          6
                                   No pseudopotential on this center.
   13          6
                                   No pseudopotential on this center.
   14          6
                                   No pseudopotential on this center.
   15          6
                                   No pseudopotential on this center.
   16          6
                                   No pseudopotential on this center.
   17          1
                                   No pseudopotential on this center.
   18          1
                                   No pseudopotential on this center.
   19          1
                                   No pseudopotential on this center.
   20          1
                                   No pseudopotential on this center.
   21          1
                                   No pseudopotential on this center.
   22          1
                                   No pseudopotential on this center.
   23          7
                                   No pseudopotential on this center.
   24          1
                                   No pseudopotential on this center.
   25          1
                                   No pseudopotential on this center.
   26          1
                                   No pseudopotential on this center.
   27          1
                                   No pseudopotential on this center.
   28          9
                                   No pseudopotential on this center.
   29          9
                                   No pseudopotential on this center.
 ======================================================================================================
   428 basis functions,   666 primitive gaussians,   443 cartesian basis functions
    55 alpha electrons       55 beta electrons
       nuclear repulsion energy       999.9184960429 Hartrees.
 NAtoms=   29 NActive=   29 NUniq=   29 SFac= 1.00D+00 NAtFMM=   60 NAOKFM=F Big=F
 Integral buffers will be    131072 words long.
 Raffenetti 2 integral format.
 Two-electron integral symmetry is turned off.
 Nuclear repulsion after empirical dispersion term =      999.8955353026 Hartrees.
 ------------------------------------------------------------------------------
 Polarizable Continuum Model (PCM)
 =================================
 Model                : PCM.
 Atomic radii         : UFF (Universal Force Field).
 Polarization charges : Total charges.
 Charge compensation  : None.
 Solution method      : On-the-fly selection.
 Cavity type          : Scaled VdW (van der Waals Surface) (Alpha=1.100).
 Cavity algorithm     : GePol (No added spheres)
                        Default sphere list used, NSphG=   29.
                        Lebedev-Laikov grids with approx.  5.0 points / Ang**2.
                        Smoothing algorithm: York/Karplus (Gamma=1.0000).
                        Polarization charges: spherical gaussians, with
                                              point-specific exponents (IZeta= 3).
                        Self-potential: point-specific (ISelfS= 7).
                        Self-field    : sphere-specific E.n sum rule (ISelfD= 2).
 Solvent              : Toluene, Eps=   2.374100 Eps(inf)=   2.238315
 ------------------------------------------------------------------------------
 One-electron integrals computed using PRISM.
   1 Symmetry operations used in ECPInt.
 ECPInt:  NShTT=   12880 NPrTT=   43383 LenC2=   12190 LenP2D=   29721.
 LDataN:  DoStor=T MaxTD1= 4 Len=   56
 Number of processors reduced to 104 by ecpmxn.
 NBasis=   428 RedAO= T EigKep=  2.94D-06  NBF=   428
 NBsUse=   426 1.00D-06 EigRej=  9.53D-07 NBFU=   426
 ExpMin= 3.15D-02 ExpMax= 1.14D+04 ExpMxC= 1.72D+03 IAcc=3 IRadAn=         5 AccDes= 0.00D+00
 Harris functional with IExCor= 4639 and IRadAn=       5 diagonalized for initial guess.
 HarFok:  IExCor= 4639 AccDes= 0.00D+00 IRadAn=         5 IDoV= 1 UseB2=F ITyADJ=14
 ICtDFT=  3500011 ScaDFX=  1.000000  1.000000  1.000000  1.000000
 FoFCou: FMM=F IPFlag=           0 FMFlag=      100000 FMFlg1=           0
         NFxFlg=           0 DoJE=T BraDBF=F KetDBF=T FulRan=T
         wScrn=  0.000000 ICntrl=       500 IOpCl=  0 I1Cent=   200000004 NGrid=           0
         NMat0=    1 NMatS0=      1 NMatT0=    0 NMatD0=    1 NMtDS0=    0 NMtDT0=    0
 Symmetry not used in FoFCou.
 Requested convergence on RMS density matrix=1.00D-08 within 300 cycles.
 Requested convergence on MAX density matrix=1.00D-06.
 Requested convergence on             energy=1.00D-06.
 No special actions if energy rises.
 Inv3:  Mode=1 IEnd=    13713132.
 Iteration    1 A*A^-1 deviation from unit magnitude is 5.11D-15 for   2121.
 Iteration    1 A*A^-1 deviation from orthogonality  is 3.15D-15 for   2133   1040.
 Iteration    1 A^-1*A deviation from unit magnitude is 5.11D-15 for   2121.
 Iteration    1 A^-1*A deviation from orthogonality  is 1.50D-15 for   2058   2056.
 Error on total polarization charges =  0.00898
 SCF Done:  E(RwB97XD) =  -707.000193110     A.U. after   16 cycles
            NFock= 16  Conv=0.40D-08     -V/T= 2.0039

 **********************************************************************

            Population analysis using the SCF Density.

 **********************************************************************

 Alpha  occ. eigenvalues --  -24.81575 -24.81486 -14.44278 -10.34076 -10.31337
 Alpha  occ. eigenvalues --  -10.31227 -10.30189 -10.30116 -10.29089 -10.28843
 Alpha  occ. eigenvalues --  -10.28435 -10.27954 -10.27854 -10.27704  -6.95369
 Alpha  occ. eigenvalues --   -1.33834  -1.30620  -1.05665  -0.96306  -0.90578
 Alpha  occ. eigenvalues --   -0.86664  -0.85479  -0.84206  -0.75546  -0.73672
 Alpha  occ. eigenvalues --   -0.70612  -0.69522  -0.66769  -0.65336  -0.63392
 Alpha  occ. eigenvalues --   -0.61956  -0.59132  -0.58138  -0.56722  -0.56461
 Alpha  occ. eigenvalues --   -0.55123  -0.54425  -0.53083  -0.52320  -0.51636
 Alpha  occ. eigenvalues --   -0.50883  -0.50356  -0.49500  -0.48849  -0.47817
 Alpha  occ. eigenvalues --   -0.45974  -0.44544  -0.43347  -0.42659  -0.41465
 Alpha  occ. eigenvalues --   -0.40500  -0.39982  -0.36180  -0.34539  -0.28714
 Alpha virt. eigenvalues --    0.01183   0.03994   0.04764   0.05177   0.05439
 Alpha virt. eigenvalues --    0.05622   0.06248   0.06406   0.07551   0.07908
 Alpha virt. eigenvalues --    0.08194   0.08498   0.08688   0.09843   0.10156
 Alpha virt. eigenvalues --    0.10723   0.11377   0.11967   0.12435   0.12826
 Alpha virt. eigenvalues --    0.13639   0.13942   0.14863   0.15455   0.15863
 Alpha virt. eigenvalues --    0.16441   0.16556   0.16750   0.17113   0.17540
 Alpha virt. eigenvalues --    0.17686   0.17974   0.18248   0.18580   0.19285
 Alpha virt. eigenvalues --    0.19486   0.19791   0.19914   0.20382   0.20468
 Alpha virt. eigenvalues --    0.21225   0.21424   0.21574   0.22263   0.22479
 Alpha virt. eigenvalues --    0.22838   0.22914   0.23665   0.23824   0.24330
 Alpha virt. eigenvalues --    0.24757   0.25034   0.25574   0.26064   0.26255
 Alpha virt. eigenvalues --    0.26833   0.27072   0.27326   0.27893   0.28537
 Alpha virt. eigenvalues --    0.29012   0.29532   0.30022   0.30410   0.30882
 Alpha virt. eigenvalues --    0.31469   0.31717   0.32619   0.32794   0.33151
 Alpha virt. eigenvalues --    0.33635   0.33862   0.34948   0.35715   0.35912
 Alpha virt. eigenvalues --    0.36445   0.36652   0.37478   0.37526   0.38538
 Alpha virt. eigenvalues --    0.38861   0.39470   0.39721   0.40088   0.40594
 Alpha virt. eigenvalues --    0.40981   0.41514   0.41923   0.42340   0.42844
 Alpha virt. eigenvalues --    0.43040   0.44297   0.44959   0.45664   0.46327
 Alpha virt. eigenvalues --    0.46633   0.48124   0.49461   0.50412   0.51060
 Alpha virt. eigenvalues --    0.52419   0.53923   0.55384   0.56606   0.57027
 Alpha virt. eigenvalues --    0.57651   0.58294   0.59674   0.60055   0.60854
 Alpha virt. eigenvalues --    0.62637   0.63725   0.64201   0.64530   0.64687
 Alpha virt. eigenvalues --    0.65344   0.66319   0.67727   0.68764   0.69188
 Alpha virt. eigenvalues --    0.69771   0.70845   0.71407   0.72092   0.72474
 Alpha virt. eigenvalues --    0.73182   0.74358   0.75451   0.75785   0.76388
 Alpha virt. eigenvalues --    0.76941   0.77543   0.78085   0.79273   0.80975
 Alpha virt. eigenvalues --    0.81148   0.82555   0.83200   0.83347   0.84387
 Alpha virt. eigenvalues --    0.84967   0.85657   0.85912   0.86665   0.87195
 Alpha virt. eigenvalues --    0.87705   0.88485   0.88770   0.90103   0.93376
 Alpha virt. eigenvalues --    0.93744   0.94639   0.95413   0.96352   0.97370
 Alpha virt. eigenvalues --    0.98369   0.99696   1.00201   1.01203   1.02242
 Alpha virt. eigenvalues --    1.02866   1.05219   1.06589   1.07356   1.10547
 Alpha virt. eigenvalues --    1.11105   1.12872   1.13377   1.14434   1.15669
 Alpha virt. eigenvalues --    1.17346   1.18408   1.20293   1.21449   1.23398
 Alpha virt. eigenvalues --    1.25031   1.27095   1.29689   1.31655   1.34649
 Alpha virt. eigenvalues --    1.36729   1.37850   1.38753   1.41046   1.41700
 Alpha virt. eigenvalues --    1.43813   1.45855   1.47397   1.47925   1.49418
 Alpha virt. eigenvalues --    1.51331   1.53344   1.54468   1.56701   1.58848
 Alpha virt. eigenvalues --    1.60816   1.61133   1.62422   1.63545   1.64744
 Alpha virt. eigenvalues --    1.65404   1.65885   1.66325   1.68144   1.68814
 Alpha virt. eigenvalues --    1.69448   1.70386   1.70705   1.72009   1.72939
 Alpha virt. eigenvalues --    1.73524   1.74380   1.75607   1.77267   1.77520
 Alpha virt. eigenvalues --    1.78570   1.79848   1.80838   1.82653   1.83249
 Alpha virt. eigenvalues --    1.83340   1.84707   1.87297   1.87660   1.89517
 Alpha virt. eigenvalues --    1.89606   1.90467   1.92467   1.93503   1.94021
 Alpha virt. eigenvalues --    1.94992   1.96650   1.99674   1.99738   2.00890
 Alpha virt. eigenvalues --    2.01003   2.02881   2.03540   2.06150   2.06686
 Alpha virt. eigenvalues --    2.07705   2.11389   2.13144   2.13781   2.14170
 Alpha virt. eigenvalues --    2.15574   2.18641   2.19624   2.21742   2.23678
 Alpha virt. eigenvalues --    2.26119   2.28045   2.29068   2.29420   2.32892
 Alpha virt. eigenvalues --    2.35615   2.36689   2.38353   2.41058   2.41345
 Alpha virt. eigenvalues --    2.42619   2.43988   2.46324   2.48765   2.52323
 Alpha virt. eigenvalues --    2.53517   2.55844   2.56603   2.57916   2.58404
 Alpha virt. eigenvalues --    2.60456   2.62927   2.63801   2.65711   2.68225
 Alpha virt. eigenvalues --    2.69686   2.71545   2.73154   2.75246   2.77137
 Alpha virt. eigenvalues --    2.78179   2.79182   2.80782   2.81525   2.83310
 Alpha virt. eigenvalues --    2.83691   2.84752   2.86111   2.86603   2.87173
 Alpha virt. eigenvalues --    2.89264   2.91620   2.92223   2.93913   2.94618
 Alpha virt. eigenvalues --    2.97143   2.97907   2.98167   3.00083   3.00599
 Alpha virt. eigenvalues --    3.03485   3.04610   3.06316   3.08464   3.11337
 Alpha virt. eigenvalues --    3.15940   3.17787   3.19499   3.22837   3.24671
 Alpha virt. eigenvalues --    3.32835   3.35047   3.44224   3.47002   3.48261
 Alpha virt. eigenvalues --    3.52872   3.54889   3.59672   3.64889   3.67310
 Alpha virt. eigenvalues --    3.67857   3.83822   3.86084   3.87934   3.88544
 Alpha virt. eigenvalues --    3.89135   3.89381   3.91513   3.92489   3.94667
 Alpha virt. eigenvalues --    3.98219   4.03104   4.03933   4.07497   4.08175
 Alpha virt. eigenvalues --    4.10754   4.14959   4.20038   4.23826   4.25500
 Alpha virt. eigenvalues --    4.28415   4.31939   4.42448   4.44104   4.45549
 Alpha virt. eigenvalues --    4.63666   4.70310   4.94366   4.98678   5.15748
 Alpha virt. eigenvalues --    6.42143   6.43766   6.49825   6.55412   6.57698
 Alpha virt. eigenvalues --    6.79677  14.78845  23.76698  23.98722  24.06468
 Alpha virt. eigenvalues --   24.07288  24.08386  24.09026  24.09388  24.10448
 Alpha virt. eigenvalues --   24.18210  24.23087  24.32553  35.76658  66.95417
 Alpha virt. eigenvalues --   66.97358
          Condensed to atoms (all electrons):
               1          2          3          4          5          6
     1  C    7.919581  -0.705599  -1.812094   0.782471  -0.927591   0.686284
     2  C   -0.705599  11.488537  -2.737626  -3.267221   1.604671  -1.315964
     3  C   -1.812094  -2.737626  10.398343  -0.015318  -0.621230   1.331962
     4  C    0.782471  -3.267221  -0.015318  13.997686  -1.355180  -1.679036
     5  C   -0.927591   1.604671  -0.621230  -1.355180   7.463171  -0.750689
     6  C    0.686284  -1.315964   1.331962  -1.679036  -0.750689   8.131206
     7  H    0.414365  -0.025863   0.011393   0.014983  -0.024529  -0.046494
     8  H   -0.023228   0.502879  -0.219841   0.033018   0.067667  -0.052051
     9  H   -0.022886   0.109008  -0.029014  -0.071880   0.513308  -0.166915
    10  H   -0.048501  -0.038386   0.027026   0.053228  -0.036293   0.371540
    11  B   -0.025548  -0.128290   0.666795  -0.138484  -0.022900   0.132917
    12  C   -0.000243   0.233208  -0.123586  -0.535778   0.140191  -0.354248
    13  C    0.040390  -0.257622  -0.181606   0.266647  -0.076525   0.115787
    14  C   -0.002465   0.101419  -0.138859   0.047845  -0.178003  -0.185509
    15  C    0.012886   0.187111   0.038738  -0.495577   0.037621  -0.054464
    16  C    0.000620   0.036145   0.022025  -0.011116  -0.000684  -0.008699
    17  H   -0.000215  -0.001016  -0.001825   0.017334  -0.002265  -0.000271
    18  H    0.003608   0.007051   0.013708  -0.100585   0.016931   0.000406
    19  H   -0.000273  -0.002705  -0.000207   0.003561   0.002828   0.002067
    20  H    0.000540  -0.004025   0.007089  -0.026918   0.002129   0.000593
    21  H   -0.000124  -0.000774  -0.004220   0.020477  -0.004800  -0.000542
    22  H    0.000867   0.004909   0.006371  -0.042064   0.002496  -0.003298
    23  N    0.055345   0.324557  -0.163318  -1.237822   0.115891   0.068928
    24  H    0.020400  -0.005802   0.000554   0.079600  -0.021460  -0.025183
    25  H    0.002567  -0.057326   0.008421   0.080983  -0.020315   0.026704
    26  H    0.010718  -0.018961   0.017226  -0.123456   0.042645   0.047456
    27  H   -0.001796  -0.005245  -0.003454   0.079301  -0.002278  -0.012892
    28  F    0.017621   0.121851  -0.102520  -0.046330   0.003716   0.003935
    29  F    0.068555  -0.116103   0.011202   0.064617  -0.014860   0.013676
               7          8          9         10         11         12
     1  C    0.414365  -0.023228  -0.022886  -0.048501  -0.025548  -0.000243
     2  C   -0.025863   0.502879   0.109008  -0.038386  -0.128290   0.233208
     3  C    0.011393  -0.219841  -0.029014   0.027026   0.666795  -0.123586
     4  C    0.014983   0.033018  -0.071880   0.053228  -0.138484  -0.535778
     5  C   -0.024529   0.067667   0.513308  -0.036293  -0.022900   0.140191
     6  C   -0.046494  -0.052051  -0.166915   0.371540   0.132917  -0.354248
     7  H    0.462125  -0.007997   0.001919  -0.007586  -0.002412  -0.001370
     8  H   -0.007997   0.483241   0.001879   0.000955  -0.027895   0.003757
     9  H    0.001919   0.001879   0.506072  -0.009801  -0.006840   0.030465
    10  H   -0.007586   0.000955  -0.009801   0.457049   0.001416  -0.002570
    11  B   -0.002412  -0.027895  -0.006840   0.001416   3.609634  -0.006953
    12  C   -0.001370   0.003757   0.030465  -0.002570  -0.006953   6.861619
    13  C   -0.001136  -0.005510  -0.023010   0.000488   0.058943  -0.259194
    14  C   -0.000112   0.003053   0.014385  -0.002720  -0.046841  -1.037626
    15  C    0.000346   0.001461  -0.001017  -0.001090  -0.048813   0.228932
    16  C   -0.000088   0.000485   0.005598  -0.000168   0.015195  -0.013734
    17  H   -0.000009  -0.000012   0.000186   0.000029   0.000955   0.000392
    18  H    0.000075  -0.000202   0.000491  -0.000321  -0.001262  -0.085545
    19  H   -0.000011  -0.000063  -0.000341   0.000043   0.003567   0.001846
    20  H    0.000026  -0.000709  -0.000694  -0.000014  -0.007252   0.003655
    21  H    0.000001   0.000020   0.000051   0.000002  -0.000345  -0.016929
    22  H    0.000011   0.000028   0.001421  -0.000125  -0.001801  -0.064367
    23  N    0.000431  -0.002918  -0.018669  -0.008647   0.003524   0.325287
    24  H    0.000456  -0.000294  -0.000445   0.000034  -0.047039  -0.037138
    25  H   -0.000065  -0.001061  -0.002671   0.000132   0.007980  -0.032053
    26  H   -0.000022  -0.000881  -0.011690   0.000192   0.004520   0.438543
    27  H   -0.000032   0.000067  -0.010510   0.000724  -0.002582   0.416550
    28  F   -0.000192   0.002484  -0.000091   0.000157   0.375338  -0.003494
    29  F    0.000105   0.003888  -0.000593   0.000199   0.353974  -0.005559
              13         14         15         16         17         18
     1  C    0.040390  -0.002465   0.012886   0.000620  -0.000215   0.003608
     2  C   -0.257622   0.101419   0.187111   0.036145  -0.001016   0.007051
     3  C   -0.181606  -0.138859   0.038738   0.022025  -0.001825   0.013708
     4  C    0.266647   0.047845  -0.495577  -0.011116   0.017334  -0.100585
     5  C   -0.076525  -0.178003   0.037621  -0.000684  -0.002265   0.016931
     6  C    0.115787  -0.185509  -0.054464  -0.008699  -0.000271   0.000406
     7  H   -0.001136  -0.000112   0.000346  -0.000088  -0.000009   0.000075
     8  H   -0.005510   0.003053   0.001461   0.000485  -0.000012  -0.000202
     9  H   -0.023010   0.014385  -0.001017   0.005598   0.000186   0.000491
    10  H    0.000488  -0.002720  -0.001090  -0.000168   0.000029  -0.000321
    11  B    0.058943  -0.046841  -0.048813   0.015195   0.000955  -0.001262
    12  C   -0.259194  -1.037626   0.228932  -0.013734   0.000392  -0.085545
    13  C    6.968626  -0.151487  -0.831285  -0.214523   0.017258  -0.030206
    14  C   -0.151487   7.910052  -0.118206  -0.162500   0.371064   0.506268
    15  C   -0.831285  -0.118206   6.718377   0.038843   0.000763  -0.013839
    16  C   -0.214523  -0.162500   0.038843   5.970156  -0.054126  -0.030264
    17  H    0.017258   0.371064   0.000763  -0.054126   0.501436  -0.020085
    18  H   -0.030206   0.506268  -0.013839  -0.030264  -0.020085   0.503299
    19  H    0.004555  -0.007490   0.372843  -0.046415   0.001323  -0.003257
    20  H   -0.118352  -0.022919   0.530434  -0.055796  -0.004198   0.005008
    21  H    0.006797  -0.022836  -0.037841   0.401284  -0.008405  -0.002083
    22  H   -0.081165  -0.000549  -0.036178   0.537179  -0.005524   0.007233
    23  N    0.042489  -0.139777   0.052067  -0.018412   0.004813   0.046013
    24  H    0.405177   0.060595  -0.011008  -0.038461  -0.000605  -0.001353
    25  H    0.575701  -0.060699  -0.148727  -0.017142   0.000459   0.000525
    26  H    0.016545  -0.138313  -0.002654  -0.026543  -0.004520   0.010256
    27  H    0.016663  -0.024515  -0.003769   0.006628  -0.008291  -0.011298
    28  F    0.065193  -0.005432  -0.014878  -0.010558  -0.000380  -0.000240
    29  F    0.012202  -0.001051  -0.006141  -0.000744  -0.000000  -0.000023
              19         20         21         22         23         24
     1  C   -0.000273   0.000540  -0.000124   0.000867   0.055345   0.020400
     2  C   -0.002705  -0.004025  -0.000774   0.004909   0.324557  -0.005802
     3  C   -0.000207   0.007089  -0.004220   0.006371  -0.163318   0.000554
     4  C    0.003561  -0.026918   0.020477  -0.042064  -1.237822   0.079600
     5  C    0.002828   0.002129  -0.004800   0.002496   0.115891  -0.021460
     6  C    0.002067   0.000593  -0.000542  -0.003298   0.068928  -0.025183
     7  H   -0.000011   0.000026   0.000001   0.000011   0.000431   0.000456
     8  H   -0.000063  -0.000709   0.000020   0.000028  -0.002918  -0.000294
     9  H   -0.000341  -0.000694   0.000051   0.001421  -0.018669  -0.000445
    10  H    0.000043  -0.000014   0.000002  -0.000125  -0.008647   0.000034
    11  B    0.003567  -0.007252  -0.000345  -0.001801   0.003524  -0.047039
    12  C    0.001846   0.003655  -0.016929  -0.064367   0.325287  -0.037138
    13  C    0.004555  -0.118352   0.006797  -0.081165   0.042489   0.405177
    14  C   -0.007490  -0.022919  -0.022836  -0.000549  -0.139777   0.060595
    15  C    0.372843   0.530434  -0.037841  -0.036178   0.052067  -0.011008
    16  C   -0.046415  -0.055796   0.401284   0.537179  -0.018412  -0.038461
    17  H    0.001323  -0.004198  -0.008405  -0.005524   0.004813  -0.000605
    18  H   -0.003257   0.005008  -0.002083   0.007233   0.046013  -0.001353
    19  H    0.502770  -0.012352  -0.008812  -0.005410   0.014648  -0.015530
    20  H   -0.012352   0.493263  -0.001519   0.002520   0.019424   0.003778
    21  H   -0.008812  -0.001519   0.508392  -0.009373  -0.009883   0.000382
    22  H   -0.005410   0.002520  -0.009373   0.514694   0.026873   0.001454
    23  N    0.014648   0.019424  -0.009883   0.026873   7.439363  -0.072856
    24  H   -0.015530   0.003778   0.000382   0.001454  -0.072856   0.630737
    25  H    0.001831   0.005358  -0.000130  -0.005197  -0.116084  -0.031768
    26  H    0.001255   0.005049  -0.001788   0.002590   0.001551  -0.005630
    27  H    0.000626  -0.000843  -0.000487  -0.003774  -0.092959   0.000587
    28  F   -0.000378   0.000744   0.000141  -0.000288  -0.019769  -0.017518
    29  F    0.000572   0.000289   0.000036  -0.000074  -0.007897  -0.011021
              25         26         27         28         29
     1  C    0.002567   0.010718  -0.001796   0.017621   0.068555
     2  C   -0.057326  -0.018961  -0.005245   0.121851  -0.116103
     3  C    0.008421   0.017226  -0.003454  -0.102520   0.011202
     4  C    0.080983  -0.123456   0.079301  -0.046330   0.064617
     5  C   -0.020315   0.042645  -0.002278   0.003716  -0.014860
     6  C    0.026704   0.047456  -0.012892   0.003935   0.013676
     7  H   -0.000065  -0.000022  -0.000032  -0.000192   0.000105
     8  H   -0.001061  -0.000881   0.000067   0.002484   0.003888
     9  H   -0.002671  -0.011690  -0.010510  -0.000091  -0.000593
    10  H    0.000132   0.000192   0.000724   0.000157   0.000199
    11  B    0.007980   0.004520  -0.002582   0.375338   0.353974
    12  C   -0.032053   0.438543   0.416550  -0.003494  -0.005559
    13  C    0.575701   0.016545   0.016663   0.065193   0.012202
    14  C   -0.060699  -0.138313  -0.024515  -0.005432  -0.001051
    15  C   -0.148727  -0.002654  -0.003769  -0.014878  -0.006141
    16  C   -0.017142  -0.026543   0.006628  -0.010558  -0.000744
    17  H    0.000459  -0.004520  -0.008291  -0.000380  -0.000000
    18  H    0.000525   0.010256  -0.011298  -0.000240  -0.000023
    19  H    0.001831   0.001255   0.000626  -0.000378   0.000572
    20  H    0.005358   0.005049  -0.000843   0.000744   0.000289
    21  H   -0.000130  -0.001788  -0.000487   0.000141   0.000036
    22  H   -0.005197   0.002590  -0.003774  -0.000288  -0.000074
    23  N   -0.116084   0.001551  -0.092959  -0.019769  -0.007897
    24  H   -0.031768  -0.005630   0.000587  -0.017518  -0.011021
    25  H    0.558631   0.021075  -0.003416   0.007537   0.000548
    26  H    0.021075   0.589825  -0.040908  -0.000360   0.000245
    27  H   -0.003416  -0.040908   0.530660   0.000245  -0.000120
    28  F    0.007537  -0.000360   0.000245   8.674252  -0.072160
    29  F    0.000548   0.000245  -0.000120  -0.072160   8.722413
 Mulliken charges:
               1
     1  C   -0.466254
     2  C   -0.032815
     3  C   -0.406136
     4  C   -0.394987
     5  C    0.046337
     6  C   -0.277205
     7  H    0.211680
     8  H    0.237780
     9  H    0.192284
    10  H    0.243008
    11  B    0.280496
    12  C   -0.104055
    13  C   -0.381837
    14  C   -0.566771
    15  C   -0.394936
    16  C   -0.324185
    17  H    0.195738
    18  H    0.179688
    19  H    0.188909
    20  H    0.175697
    21  H    0.193307
    22  H    0.150539
    23  N    0.367807
    24  H    0.139361
    25  H    0.198202
    26  H    0.166032
    27  H    0.177119
    28  F    0.021372
    29  F   -0.016174
 Sum of Mulliken charges =  -0.00000
 Mulliken charges with hydrogens summed into heavy atoms:
               1
     1  C   -0.254573
     2  C    0.204965
     3  C   -0.406136
     4  C   -0.394987
     5  C    0.238621
     6  C   -0.034197
    11  B    0.280496
    12  C    0.239095
    13  C   -0.044274
    14  C   -0.191344
    15  C   -0.030331
    16  C    0.019661
    23  N    0.367807
    28  F    0.021372
    29  F   -0.016174
 Electronic spatial extent (au):  <R**2>=           9372.1586
 Charge=             -0.0000 electrons
 Dipole moment (field-independent basis, Debye):
    X=             -2.5037    Y=              1.9658    Z=             -0.3743  Tot=              3.2052
 Quadrupole moment (field-independent basis, Debye-Ang):
   XX=            -95.1871   YY=            -70.1418   ZZ=            -88.2119
   XY=             -0.9049   XZ=              0.7767   YZ=             -3.5850
 Traceless Quadrupole moment (field-independent basis, Debye-Ang):
   XX=            -10.6735   YY=             14.3718   ZZ=             -3.6983
   XY=             -0.9049   XZ=              0.7767   YZ=             -3.5850
 Octapole moment (field-independent basis, Debye-Ang**2):
  XXX=           -430.2342  YYY=           -846.9813  ZZZ=             78.5250  XYY=           -107.4243
  XXY=           -323.5955  XXZ=             28.2812  XZZ=           -124.1570  YZZ=           -315.1118
  YYZ=              7.8447  XYZ=              8.7825
 Hexadecapole moment (field-independent basis, Debye-Ang**3):
 XXXX=          -2657.1974 YYYY=          -8671.1387 ZZZZ=           -664.4363 XXXY=          -1682.3819
 XXXZ=            135.4928 YYYX=          -1445.8002 YYYZ=            580.6666 ZZZX=            137.8040
 ZZZY=            685.1625 XXYY=          -1918.0004 XXZZ=           -521.9806 YYZZ=          -1615.7475
 XXYZ=            256.0857 YYXZ=             70.4304 ZZXY=           -524.6326
 N-N= 9.998955353026D+02 E-N=-3.654001355164D+03  KE= 7.042296119538D+02
 Breneman (CHELPG) radii used.
 Generate Potential Derived Charges using the Breneman model, NDens= 1.
 Grid spacing= 0.300 Box extension= 2.800
 NStep X,Y,Z=   41     45     34   Total possible points=       62730
 Number of Points to Fit=   16359

 **********************************************************************

            Electrostatic Properties Using The SCF Density.

 **********************************************************************

       Atomic Center    1 is at  -0.602698  0.955754  0.706174
       Atomic Center    2 is at   0.776607  1.061415  0.785332
       Atomic Center    3 is at   1.469112  2.175401  0.286687
       Atomic Center    4 is at   0.725496  3.247514 -0.270408
       Atomic Center    5 is at  -0.667224  3.119811 -0.362548
       Atomic Center    6 is at  -1.316753  1.989344  0.112608
       Atomic Center    7 is at  -1.111430  0.079352  1.089113
       Atomic Center    8 is at   1.345854  0.246547  1.218945
       Atomic Center    9 is at  -1.256823  3.922855 -0.784897
       Atomic Center   10 is at  -2.397089  1.928238  0.034086
       Atomic Center   11 is at   3.006265  2.052410  0.246777
       Atomic Center   12 is at   0.667174  5.260697 -1.661935
       Atomic Center   13 is at   2.094715  5.182233  0.290256
       Atomic Center   14 is at   1.645652  6.191166 -2.374177
       Atomic Center   15 is at   3.118247  6.109206 -0.350787
       Atomic Center   16 is at   2.445755  7.022730 -1.373884
       Atomic Center   17 is at   1.087522  6.838093 -3.057256
       Atomic Center   18 is at   2.328043  5.584241 -2.978770
       Atomic Center   19 is at   3.607944  6.697385  0.430821
       Atomic Center   20 is at   3.884878  5.500347 -0.839317
       Atomic Center   21 is at   3.189089  7.634847 -1.891745
       Atomic Center   22 is at   1.769245  7.713227 -0.853862
       Atomic Center   23 is at   1.378315  4.401557 -0.723883
       Atomic Center   24 is at   2.578809  4.509386  0.995830
       Atomic Center   25 is at   1.366650  5.781390  0.866991
       Atomic Center   26 is at  -0.100763  5.867150 -1.147343
       Atomic Center   27 is at   0.157922  4.632026 -2.394977
       Atomic Center   28 is at   3.829305  2.841763 -0.439693
       Atomic Center   29 is at   3.618939  1.053820  0.895866
   16359 points will be used for fitting atomic charges
 Fitting point charges to electrostatic potential
 Charges from ESP fit, RMS=   0.00348 RRMS=   0.31292:
 ESP charges:
               1
     1  C   -0.215925
     2  C    0.033910
     3  C   -0.495052
     4  C    0.535172
     5  C   -0.270640
     6  C   -0.008275
     7  H    0.120230
     8  H    0.084168
     9  H    0.115314
    10  H    0.099905
    11  B    0.886538
    12  C    0.248641
    13  C    0.267063
    14  C   -0.099796
    15  C   -0.054855
    16  C    0.047558
    17  H    0.013830
    18  H    0.050186
    19  H    0.004282
    20  H    0.052545
    21  H   -0.001480
    22  H    0.001995
    23  N   -0.652219
    24  H   -0.015788
    25  H   -0.032604
    26  H    0.004756
    27  H   -0.001046
    28  F   -0.355256
    29  F   -0.363155
 Sum of ESP charges =  -0.00000
 ESP charges with hydrogens summed into heavy atoms:
               1
     1  C   -0.095695
     2  C    0.118078
     3  C   -0.495052
     4  C    0.535172
     5  C   -0.155326
     6  C    0.091630
    11  B    0.886538
    12  C    0.252350
    13  C    0.218671
    14  C   -0.035781
    15  C    0.001972
    16  C    0.048073
    23  N   -0.652219
    28  F   -0.355256
    29  F   -0.363155
 Charge=  -0.00000 Dipole=    -2.5628     1.8956    -0.3451 Tot=     3.2063
 -----------------------------------------------------------------

              Electrostatic Properties (Atomic Units)

 -----------------------------------------------------------------
    Center     Electric         -------- Electric Field --------
               Potential          X             Y             Z
 -----------------------------------------------------------------
    1 Atom    -14.774616
    2 Atom    -14.764957
    3 Atom    -14.779998
    4 Atom    -14.721904
    5 Atom    -14.770771
    6 Atom    -14.761117
    7 Atom     -1.101596
    8 Atom     -1.104761
    9 Atom     -1.095050
   10 Atom     -1.094738
   11 Atom    -11.360559
   12 Atom    -14.740401
   13 Atom    -14.741502
   14 Atom    -14.773295
   15 Atom    -14.777425
   16 Atom    -14.773879
   17 Atom     -1.119375
   18 Atom     -1.127380
   19 Atom     -1.122609
   20 Atom     -1.132509
   21 Atom     -1.125082
   22 Atom     -1.124272
   23 Atom    -18.381310
   24 Atom     -1.113966
   25 Atom     -1.120316
   26 Atom     -1.115953
   27 Atom     -1.111669
   28 Atom    -26.599536
   29 Atom    -26.600899
 -----------------------------------------------------------------
 Unable to Open any file for archive entry.
 1\1\GINC-IRENE4403\SP\RwB97XD\GenECP\C11H14B1F2N1\PENASFRA\10-Apr-2024
 \0\\# wb97xd/genecp scrf=(solvent=toluene,pcm) nosymm pop=(chelpg) scf
 cyc=300\\f_benzopiperidine_chelpg\\0,1\C,0,-0.602698,0.955754,0.706174
 \C,0,0.776607,1.061415,0.785332\C,0,1.469112,2.175401,0.286687\C,0,0.7
 25496,3.247514,-0.270408\C,0,-0.667224,3.119811,-0.362548\C,0,-1.31675
 3,1.989344,0.112608\H,0,-1.11143,0.079352,1.089113\H,0,1.345854,0.2465
 47,1.218945\H,0,-1.256823,3.922855,-0.784897\H,0,-2.397089,1.928238,0.
 034086\B,0,3.006265,2.05241,0.246777\C,0,0.667174,5.260697,-1.661935\C
 ,0,2.094715,5.182233,0.290256\C,0,1.645652,6.191166,-2.374177\C,0,3.11
 8247,6.109206,-0.350787\C,0,2.445755,7.02273,-1.373884\H,0,1.087522,6.
 838093,-3.057256\H,0,2.328043,5.584241,-2.97877\H,0,3.607944,6.697385,
 0.430821\H,0,3.884878,5.500347,-0.839317\H,0,3.189089,7.634847,-1.8917
 45\H,0,1.769245,7.713227,-0.853862\N,0,1.378315,4.401557,-0.723883\H,0
 ,2.578809,4.509386,0.99583\H,0,1.36665,5.78139,0.866991\H,0,-0.100763,
 5.86715,-1.147343\H,0,0.157922,4.632026,-2.394977\F,0,3.829305,2.84176
 3,-0.439693\F,0,3.618939,1.05382,0.895866\\Version=AS64L-G16RevC.02\HF
 =-707.0001931\RMSD=3.958e-09\Dipole=-0.9850434,0.7734244,-0.1472569\Qu
 adrupole=-7.9354909,10.685075,-2.7495841,-0.6727363,0.5774866,-2.66537
 86\PG=C01 [X(C11H14B1F2N1)]\\@
 The archive entry for this job was punched.


 TERENCE, THIS IS STUPID STUFF:
 YOU EAT YOUR VICTUALS FAST ENOUGH;
 THERE CAN'T BE MUCH AMISS, 'TIS CLEAR
 TO SEE THE RATE YOU DRINK YOUR BEER.
 BUT OH, GOOD LORD, THE VERSE YOU MAKE,
 IT GIVES A CHAP THE BELLY-ACHE.
 THE COW, THE OLD COW, SHE IS DEAD;
 IT SLEEPS WELL, THE HORNED HEAD:
 WE POOR LADS, 'TIS OUR TURN NOW
 TO HEAR SUCH TUNES AS KILLED THE COW.
 PRETTY FRIENDSHIP 'TIS TO RHYME
 YOUR FRIENDS TO DEATH BEFORE THEIR TIME.
 MOPING, MELANCHOLY MAD:
 COME PIPE A TUNE TO DANCE TO, LAD.

     -- A. E. HOUSMAN
 Job cpu time:       0 days  0 hours 57 minutes 30.9 seconds.
 Elapsed time:       0 days  0 hours  0 minutes 36.0 seconds.
 File lengths (MBytes):  RWF=    175 Int=      0 D2E=      0 Chk=     12 Scr=      1
 Normal termination of Gaussian 16 at Wed Apr 10 16:00:51 2024.
