 Entering Gaussian System, Link 0=/ccc/products/gaussian-16-C.02/system/default/g16/g16
 Input=f_dibenzofuran_chelpg.gjf
 Output=f_dibenzofuran_chelpg.log
 Initial command:
 /ccc/products/gaussian-16-C.02/system/default/g16/l1.exe "/ccc/scratch/cont003/gen7343/penasfra/flp/b-n_flp/f_dibenzofuran/reac/Gau-644781.inp" -scrdir="/ccc/scratch/cont003/gen7343/penasfra/flp/b-n_flp/f_dibenzofuran/reac/"
 Entering Link 1 = /ccc/products/gaussian-16-C.02/system/default/g16/l1.exe PID=    644830.
  
 Copyright (c) 1988-2021, Gaussian, Inc.  All Rights Reserved.
  
 This is part of the Gaussian(R) 16 program.  It is based on
 the Gaussian(R) 09 system (copyright 2009, Gaussian, Inc.),
 the Gaussian(R) 03 system (copyright 2003, Gaussian, Inc.),
 the Gaussian(R) 98 system (copyright 1998, Gaussian, Inc.),
 the Gaussian(R) 94 system (copyright 1995, Gaussian, Inc.),
 the Gaussian 92(TM) system (copyright 1992, Gaussian, Inc.),
 the Gaussian 90(TM) system (copyright 1990, Gaussian, Inc.),
 the Gaussian 88(TM) system (copyright 1988, Gaussian, Inc.),
 the Gaussian 86(TM) system (copyright 1986, Carnegie Mellon
 University), and the Gaussian 82(TM) system (copyright 1983,
 Carnegie Mellon University). Gaussian is a federally registered
 trademark of Gaussian, Inc.
  
 This software contains proprietary and confidential information,
 including trade secrets, belonging to Gaussian, Inc.
  
 This software is provided under written license and may be
 used, copied, transmitted, or stored only in accord with that
 written license.
  
 The following legend is applicable only to US Government
 contracts under FAR:
  
                    RESTRICTED RIGHTS LEGEND
  
 Use, reproduction and disclosure by the US Government is
 subject to restrictions as set forth in subparagraphs (a)
 and (c) of the Commercial Computer Software - Restricted
 Rights clause in FAR 52.227-19.
  
 Gaussian, Inc.
 340 Quinnipiac St., Bldg. 40, Wallingford CT 06492
  
  
 ---------------------------------------------------------------
 Warning -- This program may not be used in any manner that
 competes with the business of Gaussian, Inc. or will provide
 assistance to any competitor of Gaussian, Inc.  The licensee
 of this program is prohibited from giving any competitor of
 Gaussian, Inc. access to this program.  By using this program,
 the user acknowledges that Gaussian, Inc. is engaged in the
 business of creating and licensing software in the field of
 computational chemistry and represents and warrants to the
 licensee that it is not a competitor of Gaussian, Inc. and that
 it will not use this program in any manner prohibited above.
 ---------------------------------------------------------------
  

 Cite this work as:
 Gaussian 16, Revision C.02,
 M. J. Frisch, G. W. Trucks, H. B. Schlegel, G. E. Scuseria, 
 M. A. Robb, J. R. Cheeseman, G. Scalmani, V. Barone, 
 G. A. Petersson, H. Nakatsuji, X. Li, M. Caricato, A. V. Marenich, 
 J. Bloino, B. G. Janesko, R. Gomperts, B. Mennucci, H. P. Hratchian, 
 J. V. Ortiz, A. F. Izmaylov, J. L. Sonnenberg, D. Williams-Young, 
 F. Ding, F. Lipparini, F. Egidi, J. Goings, B. Peng, A. Petrone, 
 T. Henderson, D. Ranasinghe, V. G. Zakrzewski, J. Gao, N. Rega, 
 G. Zheng, W. Liang, M. Hada, M. Ehara, K. Toyota, R. Fukuda, 
 J. Hasegawa, M. Ishida, T. Nakajima, Y. Honda, O. Kitao, H. Nakai, 
 T. Vreven, K. Throssell, J. A. Montgomery, Jr., J. E. Peralta, 
 F. Ogliaro, M. J. Bearpark, J. J. Heyd, E. N. Brothers, K. N. Kudin, 
 V. N. Staroverov, T. A. Keith, R. Kobayashi, J. Normand, 
 K. Raghavachari, A. P. Rendell, J. C. Burant, S. S. Iyengar, 
 J. Tomasi, M. Cossi, J. M. Millam, M. Klene, C. Adamo, R. Cammi, 
 J. W. Ochterski, R. L. Martin, K. Morokuma, O. Farkas, 
 J. B. Foresman, and D. J. Fox, Gaussian, Inc., Wallingford CT, 2019.
 
 ******************************************
 Gaussian 16:  AS64L-G16RevC.02  7-Dec-2021
                10-Apr-2024 
 ******************************************
 %nprocshared=128
 Will use up to  128 processors via shared memory.
 %mem=30GB
 %chk=f_dibenzofuran_chelpg.chk
 ----------------------------------------------------------------------
 # wb97xd/genecp scrf=(solvent=toluene,pcm) nosymm pop=(chelpg) scfcyc=
 300
 ----------------------------------------------------------------------
 1/38=1,172=1/1;
 2/12=2,15=1,17=6,18=5,40=1/2;
 3/5=7,11=2,16=1,17=8,25=1,30=1,70=2201,72=13,74=-58/1,2,3;
 4//1;
 5/5=2,7=300,38=5,53=13/2;
 6/7=2,8=2,9=2,10=2,15=8,20=3,28=1/1,2;
 99/5=1,9=1/99;
 ---------------------
 f_dibenzofuran_chelpg
 ---------------------
 Symbolic Z-matrix:
 Charge =  0 Multiplicity = 1
 C                     2.09938   2.16704   0.19592 
 C                     1.90859   2.53347  -1.14021 
 O                     1.62037   3.11783   1.0391 
 C                     1.25604   3.82859  -1.10145 
 C                     1.11828   4.12543   0.25167 
 C                     0.7673    4.70646  -2.06999 
 C                     0.51015   5.29142   0.73954 
 C                     0.15316   5.86139  -1.62221 
 H                     0.85831   4.48689  -3.12668 
 C                     0.03313   6.15083  -0.25697 
 H                    -0.24244   6.57301  -2.338 
 H                    -0.44554   7.07805   0.02888 
 C                     2.33261   1.675    -2.14895 
 H                     2.19411   1.93684  -3.1919 
 C                     2.93715   0.47462  -1.79422 
 H                     3.27367  -0.20697  -2.5661 
 C                     3.11693   0.13651  -0.45371 
 C                     2.70436   0.97465   0.59281 
 H                     3.59338  -0.80576  -0.20755 
 B                     2.93281   0.56948   2.06149 
 N                     0.35484   5.52337   2.10822 
 C                     1.55087   5.40967   2.93729 
 H                     2.2286    6.26434   2.78803 
 H                     1.25112   5.38536   3.98673 
 H                     2.08755   4.48973   2.7198 
 C                    -0.48034   6.64473   2.49014 
 H                    -0.65266   6.59594   3.56666 
 H                    -0.02277   7.62122   2.26224 
 H                    -1.44882   6.58519   1.99032 
 F                     2.5994    1.33683   3.09303 
 F                     3.49834  -0.59914   2.36602 
 
                          Input orientation:                          
 ---------------------------------------------------------------------
 Center     Atomic      Atomic             Coordinates (Angstroms)
 Number     Number       Type             X           Y           Z
 ---------------------------------------------------------------------
      1          6           0        2.099379    2.167042    0.195915
      2          6           0        1.908591    2.533470   -1.140210
      3          8           0        1.620371    3.117834    1.039100
      4          6           0        1.256044    3.828591   -1.101446
      5          6           0        1.118285    4.125430    0.251674
      6          6           0        0.767300    4.706464   -2.069991
      7          6           0        0.510153    5.291420    0.739540
      8          6           0        0.153156    5.861385   -1.622210
      9          1           0        0.858311    4.486892   -3.126675
     10          6           0        0.033130    6.150830   -0.256970
     11          1           0       -0.242443    6.573012   -2.338000
     12          1           0       -0.445543    7.078054    0.028877
     13          6           0        2.332611    1.674995   -2.148953
     14          1           0        2.194113    1.936838   -3.191901
     15          6           0        2.937152    0.474620   -1.794219
     16          1           0        3.273673   -0.206967   -2.566101
     17          6           0        3.116932    0.136510   -0.453713
     18          6           0        2.704363    0.974648    0.592811
     19          1           0        3.593379   -0.805762   -0.207549
     20          5           0        2.932807    0.569477    2.061494
     21          7           0        0.354840    5.523371    2.108224
     22          6           0        1.550867    5.409672    2.937294
     23          1           0        2.228598    6.264337    2.788028
     24          1           0        1.251115    5.385357    3.986734
     25          1           0        2.087548    4.489732    2.719795
     26          6           0       -0.480338    6.644734    2.490144
     27          1           0       -0.652655    6.595936    3.566659
     28          1           0       -0.022765    7.621215    2.262237
     29          1           0       -1.448816    6.585189    1.990322
     30          9           0        2.599404    1.336831    3.093033
     31          9           0        3.498341   -0.599136    2.366017
 ---------------------------------------------------------------------
                    Distance matrix (angstroms):
                    1          2          3          4          5
     1  C    0.000000
     2  C    1.398535   0.000000
     3  O    1.358092   2.274631   0.000000
     4  C    2.270486   1.450744   2.284698   0.000000
     5  C    2.191104   2.257490   1.373819   1.392130   0.000000
     6  C    3.654782   2.624679   3.594151   1.395568   2.418867
     7  C    3.547239   3.618754   2.459023   2.466871   1.402630
     8  C    4.554287   3.793270   4.094186   2.370614   2.730651
     9  H    4.238108   2.977413   4.450701   2.166357   3.407563
    10  C    4.510549   4.169264   3.660355   2.757073   2.353407
    11  H    5.596198   4.730703   5.178140   3.362495   3.814269
    12  H    5.533766   5.249948   4.579508   3.838234   3.348609
    13  C    2.407263   1.390804   3.571100   2.625689   3.638987
    14  H    3.396949   2.155674   4.430045   2.971314   4.219662
    15  C    2.743499   2.392599   4.092455   3.815125   4.563153
    16  H    3.826698   3.377367   5.175440   4.743603   5.599573
    17  C    2.362306   2.770701   3.654652   4.184964   4.517039
    18  C    1.394753   2.463035   2.442838   3.621205   3.543931
    19  H    3.351475   3.854716   4.565249   5.266822   5.536572
    20  B    2.593685   3.893224   3.043337   4.841234   4.383234
    21  N    4.238548   4.680382   2.920822   3.739844   2.446194
    22  C    4.281434   5.002654   2.976658   4.347201   3.008149
    23  H    4.850111   5.427046   3.650914   4.691133   3.498687
    24  H    5.044543   5.903481   3.737186   5.321007   3.944076
    25  H    3.430014   4.331123   2.219255   3.966155   2.676529
    26  C    5.654039   5.982386   4.354025   4.883155   3.730045
    27  H    6.208922   6.724450   4.863373   5.752611   4.497639
    28  H    6.206544   6.418094   4.947363   5.228165   4.191047
    29  H    5.943871   6.122813   4.727291   4.947133   3.957691
    30  F    3.054925   4.453034   2.889484   5.060350   4.247743
    31  F    3.783937   4.963280   4.370737   6.054417   5.697073
                    6          7          8          9         10
     6  C    0.000000
     7  C    2.881278   0.000000
     8  C    1.382578   2.455640   0.000000
     9  H    1.083086   3.964353   2.156360   0.000000
    10  C    2.431511   1.399703   1.400737   3.418307   0.000000
    11  H    2.139021   3.417621   1.084097   2.487079   2.141230
    12  H    3.391264   2.147198   2.136542   4.286218   1.081934
    13  C    3.412658   4.974261   4.749036   3.322088   5.375901
    14  H    3.311390   5.435547   4.693773   2.879479   5.571481
    15  C    4.763697   5.959180   6.066091   4.711194   6.558646
    16  H    5.538035   6.985454   6.888647   5.308534   7.500319
    17  C    5.386799   5.898495   6.551606   5.583182   6.761700
    18  C    4.976864   4.844647   5.940974   5.438597   5.886465
    19  H    6.468388   6.897745   7.634609   6.634311   7.814857
    20  B    6.234842   5.469329   7.021426   6.823985   6.703350
    21  N    4.277259   1.396861   3.751142   5.360218   2.468065
    22  C    5.116775   2.434582   4.790273   6.172753   3.613331
    23  H    5.306855   2.845334   4.890811   6.326192   3.755659
    24  H    6.113828   3.331984   5.735187   7.180677   4.480899
    25  H    4.973136   2.655615   4.947354   5.974299   3.980077
    26  C    5.109630   2.424282   4.233959   6.164164   2.837997
    27  H    6.112135   3.323625   5.302194   7.178566   3.910059
    28  H    5.280926   2.833823   4.268124   6.296082   2.917458
    29  H    4.992687   2.660048   4.017536   5.992441   2.726748
    30  F    6.431784   5.053976   6.977767   7.186032   6.401786
    31  F    7.435465   6.802451   8.296659   7.937701   8.028063
                   11         12         13         14         15
    11  H    0.000000
    12  H    2.428667   0.000000
    13  C    5.536896   6.454001   0.000000
    14  H    5.306605   6.616139   1.084197   0.000000
    15  C    6.898979   7.640134   1.390038   2.154925   0.000000
    16  H    7.640891   8.581259   2.145085   2.480519   1.083332
    17  C    7.500966   7.817234   2.419904   3.404475   1.394129
    18  C    6.972446   6.891407   2.854112   3.938300   2.449925
    19  H    8.584792   8.861340   3.393043   4.287908   2.141853
    20  B    8.091983   7.609623   4.394345   5.478458   3.856882
    21  N    4.607320   2.716861   6.070019   6.658639   6.883842
    22  C    5.691928   3.902312   6.358368   7.073993   6.975940
    23  H    5.698902   3.927605   6.741414   7.381598   7.417537
    24  H    6.606323   4.626932   7.251419   8.019621   7.770294
    25  H    5.945604   4.511873   5.629166   6.440246   6.100760
    26  C    4.834533   2.499362   7.357459   7.848733   8.252594
    27  H    5.918935   3.576484   8.111454   8.688465   8.893607
    28  H    4.723258   2.337020   7.769422   8.183783   8.734401
    29  H    4.493312   2.257596   7.452704   7.857069   8.420126
    30  F    8.061625   7.184873   5.259653   6.326505   4.974205
    31  F    9.357401   8.941795   5.188020   6.246809   4.333065
                   16         17         18         19         20
    16  H    0.000000
    17  C    2.145863   0.000000
    18  C    3.420388   1.402819   0.000000
    19  H    2.454289   1.084193   2.144944   0.000000
    20  B    4.704646   2.558833   1.540578   2.734263   0.000000
    21  N    7.950200   6.573503   5.339252   7.477223   5.584726
    22  C    8.049972   6.462022   5.147484   7.259030   5.109234
    23  H    8.463844   6.989155   5.746837   7.798872   5.784046
    24  H    8.848982   7.123850   5.751956   7.836336   5.452278
    25  H    7.169838   5.484645   4.154556   6.235313   4.064016
    26  C    9.306128   7.997726   6.774368   8.909692   6.981550
    27  H    9.965254   8.491017   7.191121   9.330519   7.172117
    28  H    9.770352   8.558907   7.375708   9.496856   7.648707
    29  H    9.444378   8.270721   7.118996   9.213063   7.442612
    30  F    5.904553   3.779949   2.528498   4.058637   1.328180
    31  F    4.952783   2.938967   2.500291   2.583596   1.333499
                   21         22         23         24         25
    21  N    0.000000
    22  C    1.459714   0.000000
    23  H    2.126531   1.100932   0.000000
    24  H    2.085943   1.091681   1.779038   0.000000
    25  H    2.108247   1.087024   1.781509   1.762640   0.000000
    26  C    1.449428   2.418908   2.751685   2.612229   3.360180
    27  H    2.071829   2.580471   3.002972   2.294843   3.558369
    28  H    2.137114   2.796952   2.680711   3.097696   3.803809
    29  H    2.096314   3.358079   3.776593   3.565794   4.174798
    30  F    4.851292   4.208529   4.950842   4.359719   3.215912
    31  F    6.887173   6.342301   6.992682   6.594763   5.292643
                   26         27         28         29         30
    26  C    0.000000
    27  H    1.091311   0.000000
    28  H    1.102193   1.774676   0.000000
    29  H    1.091475   1.766020   1.783510   0.000000
    30  F    6.166208   6.201483   6.859991   6.719324   0.000000
    31  F    8.265528   8.392936   8.943329   8.730981   2.254908
                   31
    31  F    0.000000
 Symmetry turned off by external request.
 Stoichiometry    C14H12BF2NO
 Framework group  C1[X(C14H12BF2NO)]
 Deg. of freedom    87
 Full point group                 C1      NOp   1
 Rotational constants (GHZ):           0.5974629           0.2861663           0.1961861
 General basis read from cards:  (5D, 7F)
 ======================================================================================================
                                       Pseudopotential Parameters
 ======================================================================================================
  Center     Atomic      Valence      Angular      Power
  Number     Number     Electrons     Momentum     of R      Exponent        Coefficient   SO-Coeffient
 ======================================================================================================
    1          6
                                   No pseudopotential on this center.
    2          6
                                   No pseudopotential on this center.
    3          8
                                   No pseudopotential on this center.
    4          6
                                   No pseudopotential on this center.
    5          6
                                   No pseudopotential on this center.
    6          6
                                   No pseudopotential on this center.
    7          6
                                   No pseudopotential on this center.
    8          6
                                   No pseudopotential on this center.
    9          1
                                   No pseudopotential on this center.
   10          6
                                   No pseudopotential on this center.
   11          1
                                   No pseudopotential on this center.
   12          1
                                   No pseudopotential on this center.
   13          6
                                   No pseudopotential on this center.
   14          1
                                   No pseudopotential on this center.
   15          6
                                   No pseudopotential on this center.
   16          1
                                   No pseudopotential on this center.
   17          6
                                   No pseudopotential on this center.
   18          6
                                   No pseudopotential on this center.
   19          1
                                   No pseudopotential on this center.
   20          5
                                   No pseudopotential on this center.
   21          7
                                   No pseudopotential on this center.
   22          6
                                   No pseudopotential on this center.
   23          1
                                   No pseudopotential on this center.
   24          1
                                   No pseudopotential on this center.
   25          1
                                   No pseudopotential on this center.
   26          6
                                   No pseudopotential on this center.
   27          1
                                   No pseudopotential on this center.
   28          1
                                   No pseudopotential on this center.
   29          1
                                   No pseudopotential on this center.
   30          9
                                   No pseudopotential on this center.
   31          9
                                   No pseudopotential on this center.
 ======================================================================================================
   502 basis functions,   792 primitive gaussians,   521 cartesian basis functions
    67 alpha electrons       67 beta electrons
       nuclear repulsion energy      1370.9326402847 Hartrees.
 NAtoms=   31 NActive=   31 NUniq=   31 SFac= 1.00D+00 NAtFMM=   60 NAOKFM=F Big=F
 Integral buffers will be    131072 words long.
 Raffenetti 2 integral format.
 Two-electron integral symmetry is turned off.
 Nuclear repulsion after empirical dispersion term =     1370.9110869123 Hartrees.
 ------------------------------------------------------------------------------
 Polarizable Continuum Model (PCM)
 =================================
 Model                : PCM.
 Atomic radii         : UFF (Universal Force Field).
 Polarization charges : Total charges.
 Charge compensation  : None.
 Solution method      : On-the-fly selection.
 Cavity type          : Scaled VdW (van der Waals Surface) (Alpha=1.100).
 Cavity algorithm     : GePol (No added spheres)
                        Default sphere list used, NSphG=   31.
                        Lebedev-Laikov grids with approx.  5.0 points / Ang**2.
                        Smoothing algorithm: York/Karplus (Gamma=1.0000).
                        Polarization charges: spherical gaussians, with
                                              point-specific exponents (IZeta= 3).
                        Self-potential: point-specific (ISelfS= 7).
                        Self-field    : sphere-specific E.n sum rule (ISelfD= 2).
 Solvent              : Toluene, Eps=   2.374100 Eps(inf)=   2.238315
 ------------------------------------------------------------------------------
 One-electron integrals computed using PRISM.
   1 Symmetry operations used in ECPInt.
 ECPInt:  NShTT=   15225 NPrTT=   55324 LenC2=   13756 LenP2D=   34093.
 LDataN:  DoStor=T MaxTD1= 4 Len=   56
 Number of processors reduced to  94 by ecpmxn.
 NBasis=   502 RedAO= T EigKep=  1.05D-06  NBF=   502
 NBsUse=   497 1.00D-06 EigRej=  5.60D-07 NBFU=   497
 ExpMin= 3.15D-02 ExpMax= 1.14D+04 ExpMxC= 1.72D+03 IAcc=3 IRadAn=         5 AccDes= 0.00D+00
 Harris functional with IExCor= 4639 and IRadAn=       5 diagonalized for initial guess.
 HarFok:  IExCor= 4639 AccDes= 0.00D+00 IRadAn=         5 IDoV= 1 UseB2=F ITyADJ=14
 ICtDFT=  3500011 ScaDFX=  1.000000  1.000000  1.000000  1.000000
 FoFCou: FMM=F IPFlag=           0 FMFlag=      100000 FMFlg1=           0
         NFxFlg=           0 DoJE=T BraDBF=F KetDBF=T FulRan=T
         wScrn=  0.000000 ICntrl=       500 IOpCl=  0 I1Cent=   200000004 NGrid=           0
         NMat0=    1 NMatS0=      1 NMatT0=    0 NMatD0=    1 NMtDS0=    0 NMtDT0=    0
 Symmetry not used in FoFCou.
 Requested convergence on RMS density matrix=1.00D-08 within 300 cycles.
 Requested convergence on MAX density matrix=1.00D-06.
 Requested convergence on             energy=1.00D-06.
 No special actions if energy rises.
 Inv3:  Mode=1 IEnd=    18347187.
 Iteration    1 A*A^-1 deviation from unit magnitude is 4.00D-15 for   2458.
 Iteration    1 A*A^-1 deviation from orthogonality  is 2.10D-15 for   2446   1157.
 Iteration    1 A^-1*A deviation from unit magnitude is 3.77D-15 for   2457.
 Iteration    1 A^-1*A deviation from orthogonality  is 3.18D-15 for   2455   1105.
 Error on total polarization charges =  0.01014
 SCF Done:  E(RwB97XD) =  -895.311462763     A.U. after   16 cycles
            NFock= 16  Conv=0.70D-08     -V/T= 2.0037

 **********************************************************************

            Population analysis using the SCF Density.

 **********************************************************************

 Alpha  occ. eigenvalues --  -24.82301 -24.82251 -19.32192 -14.45108 -10.36693
 Alpha  occ. eigenvalues --  -10.35254 -10.33924 -10.31355 -10.31122 -10.31033
 Alpha  occ. eigenvalues --  -10.30890 -10.30629 -10.30369 -10.29985 -10.29781
 Alpha  occ. eigenvalues --  -10.29341 -10.29271 -10.29148  -6.96271  -1.34520
 Alpha  occ. eigenvalues --   -1.31478  -1.23165  -1.05504  -0.98228  -0.96547
 Alpha  occ. eigenvalues --   -0.89919  -0.87672  -0.85079  -0.84173  -0.81501
 Alpha  occ. eigenvalues --   -0.76876  -0.74535  -0.72796  -0.70602  -0.68606
 Alpha  occ. eigenvalues --   -0.66417  -0.63754  -0.62766  -0.62413  -0.60248
 Alpha  occ. eigenvalues --   -0.59002  -0.58658  -0.57621  -0.57214  -0.55540
 Alpha  occ. eigenvalues --   -0.55272  -0.55065  -0.53692  -0.52946  -0.51734
 Alpha  occ. eigenvalues --   -0.50799  -0.50624  -0.50025  -0.48690  -0.47839
 Alpha  occ. eigenvalues --   -0.46912  -0.46683  -0.45795  -0.45490  -0.45139
 Alpha  occ. eigenvalues --   -0.44225  -0.42330  -0.39077  -0.36529  -0.33182
 Alpha  occ. eigenvalues --   -0.30924  -0.27998
 Alpha virt. eigenvalues --   -0.00401   0.03703   0.03939   0.04460   0.04964
 Alpha virt. eigenvalues --    0.05868   0.06079   0.06194   0.06835   0.07394
 Alpha virt. eigenvalues --    0.07674   0.07827   0.08177   0.08315   0.09207
 Alpha virt. eigenvalues --    0.09935   0.10351   0.10698   0.11335   0.12083
 Alpha virt. eigenvalues --    0.12448   0.12676   0.13652   0.13926   0.14333
 Alpha virt. eigenvalues --    0.14829   0.14950   0.15357   0.15700   0.16267
 Alpha virt. eigenvalues --    0.16335   0.16951   0.17208   0.17587   0.17985
 Alpha virt. eigenvalues --    0.18186   0.18399   0.18700   0.19230   0.19651
 Alpha virt. eigenvalues --    0.19778   0.20060   0.20201   0.20860   0.21239
 Alpha virt. eigenvalues --    0.21607   0.21942   0.22179   0.22428   0.22645
 Alpha virt. eigenvalues --    0.22967   0.23452   0.23627   0.24063   0.24736
 Alpha virt. eigenvalues --    0.25170   0.25648   0.25932   0.26049   0.26397
 Alpha virt. eigenvalues --    0.26669   0.26988   0.27510   0.27776   0.28154
 Alpha virt. eigenvalues --    0.28477   0.28838   0.29401   0.29566   0.30257
 Alpha virt. eigenvalues --    0.30619   0.31150   0.31652   0.32217   0.32581
 Alpha virt. eigenvalues --    0.32798   0.33327   0.33705   0.33988   0.34469
 Alpha virt. eigenvalues --    0.34735   0.34866   0.35158   0.35709   0.36792
 Alpha virt. eigenvalues --    0.36965   0.37326   0.37627   0.37772   0.38158
 Alpha virt. eigenvalues --    0.38631   0.39070   0.39271   0.39459   0.40046
 Alpha virt. eigenvalues --    0.40402   0.40815   0.40989   0.41624   0.42036
 Alpha virt. eigenvalues --    0.42536   0.42671   0.42912   0.44563   0.44962
 Alpha virt. eigenvalues --    0.45837   0.45943   0.47412   0.47648   0.48034
 Alpha virt. eigenvalues --    0.48769   0.49873   0.50455   0.51909   0.54211
 Alpha virt. eigenvalues --    0.54847   0.56395   0.57393   0.57690   0.58868
 Alpha virt. eigenvalues --    0.59767   0.60380   0.61119   0.61500   0.61570
 Alpha virt. eigenvalues --    0.62998   0.63724   0.64388   0.64896   0.65517
 Alpha virt. eigenvalues --    0.66207   0.66528   0.66844   0.67433   0.67649
 Alpha virt. eigenvalues --    0.68091   0.68474   0.69938   0.70110   0.70700
 Alpha virt. eigenvalues --    0.70841   0.71774   0.72392   0.73085   0.73706
 Alpha virt. eigenvalues --    0.74090   0.74774   0.75178   0.75726   0.76082
 Alpha virt. eigenvalues --    0.77198   0.78179   0.79270   0.79766   0.80604
 Alpha virt. eigenvalues --    0.81116   0.82241   0.83042   0.84007   0.84503
 Alpha virt. eigenvalues --    0.85526   0.86481   0.87664   0.88534   0.89348
 Alpha virt. eigenvalues --    0.90184   0.91121   0.91622   0.93269   0.94529
 Alpha virt. eigenvalues --    0.94974   0.95056   0.95489   0.95947   0.97136
 Alpha virt. eigenvalues --    0.97244   0.98199   0.98667   0.99871   1.00407
 Alpha virt. eigenvalues --    1.01174   1.02544   1.02802   1.03936   1.05051
 Alpha virt. eigenvalues --    1.06483   1.07166   1.08677   1.09326   1.09928
 Alpha virt. eigenvalues --    1.10984   1.11232   1.12295   1.13424   1.14006
 Alpha virt. eigenvalues --    1.14534   1.16194   1.16993   1.18585   1.19321
 Alpha virt. eigenvalues --    1.20174   1.20430   1.22333   1.22753   1.23015
 Alpha virt. eigenvalues --    1.27562   1.27923   1.34773   1.35322   1.35726
 Alpha virt. eigenvalues --    1.36806   1.37152   1.37864   1.39240   1.40569
 Alpha virt. eigenvalues --    1.41556   1.43789   1.44164   1.44426   1.45211
 Alpha virt. eigenvalues --    1.46678   1.47777   1.50110   1.50434   1.52800
 Alpha virt. eigenvalues --    1.53110   1.54591   1.56375   1.57949   1.58969
 Alpha virt. eigenvalues --    1.60347   1.61475   1.62182   1.63212   1.63567
 Alpha virt. eigenvalues --    1.64339   1.64929   1.65803   1.67475   1.67968
 Alpha virt. eigenvalues --    1.68835   1.69512   1.70447   1.72255   1.73365
 Alpha virt. eigenvalues --    1.75001   1.75047   1.76464   1.77384   1.78414
 Alpha virt. eigenvalues --    1.79572   1.79632   1.80537   1.81724   1.82285
 Alpha virt. eigenvalues --    1.84187   1.84675   1.87792   1.88662   1.90328
 Alpha virt. eigenvalues --    1.91019   1.91459   1.93432   1.94241   1.95600
 Alpha virt. eigenvalues --    1.96054   1.96220   1.97970   1.99259   1.99889
 Alpha virt. eigenvalues --    2.00536   2.01341   2.02302   2.04269   2.05061
 Alpha virt. eigenvalues --    2.05690   2.07078   2.08125   2.08314   2.10250
 Alpha virt. eigenvalues --    2.12761   2.13234   2.15106   2.16495   2.16677
 Alpha virt. eigenvalues --    2.17889   2.19249   2.22300   2.23368   2.25510
 Alpha virt. eigenvalues --    2.26872   2.28747   2.30071   2.31402   2.31848
 Alpha virt. eigenvalues --    2.35465   2.35927   2.37171   2.39263   2.43272
 Alpha virt. eigenvalues --    2.45559   2.49670   2.51305   2.52307   2.53892
 Alpha virt. eigenvalues --    2.54902   2.55759   2.57508   2.58787   2.61689
 Alpha virt. eigenvalues --    2.62244   2.64788   2.65283   2.66413   2.66797
 Alpha virt. eigenvalues --    2.67759   2.69044   2.71477   2.74947   2.75178
 Alpha virt. eigenvalues --    2.76173   2.78347   2.79458   2.80588   2.80711
 Alpha virt. eigenvalues --    2.82451   2.83179   2.84849   2.85613   2.85758
 Alpha virt. eigenvalues --    2.87257   2.87545   2.87615   2.88858   2.89732
 Alpha virt. eigenvalues --    2.90293   2.91549   2.91648   2.94392   2.96134
 Alpha virt. eigenvalues --    2.97510   2.99415   3.01287   3.02940   3.05305
 Alpha virt. eigenvalues --    3.06768   3.12389   3.13777   3.15305   3.17641
 Alpha virt. eigenvalues --    3.19446   3.20282   3.25034   3.27068   3.28109
 Alpha virt. eigenvalues --    3.28993   3.32252   3.34725   3.37387   3.41880
 Alpha virt. eigenvalues --    3.48595   3.49698   3.50716   3.52839   3.60716
 Alpha virt. eigenvalues --    3.63579   3.64342   3.66440   3.67648   3.71662
 Alpha virt. eigenvalues --    3.73373   3.79280   3.84284   3.84782   3.86441
 Alpha virt. eigenvalues --    3.86513   3.87637   3.88678   3.91534   3.92333
 Alpha virt. eigenvalues --    3.94179   3.95374   4.05403   4.06562   4.08623
 Alpha virt. eigenvalues --    4.09718   4.10338   4.12839   4.14812   4.21312
 Alpha virt. eigenvalues --    4.24606   4.32173   4.36658   4.38840   4.41019
 Alpha virt. eigenvalues --    4.62760   4.67069   4.68830   4.91948   4.95184
 Alpha virt. eigenvalues --    4.99661   5.12984   5.14955   5.61525   6.06470
 Alpha virt. eigenvalues --    6.40192   6.40960   6.46249   6.54272   6.56504
 Alpha virt. eigenvalues --    6.78871  14.78842  23.68920  23.84028  24.06867
 Alpha virt. eigenvalues --   24.07364  24.07971  24.09412  24.10368  24.11198
 Alpha virt. eigenvalues --   24.18964  24.19929  24.20973  24.24113  24.30544
 Alpha virt. eigenvalues --   24.33502  35.74881  50.13481  66.95101  66.95984
          Condensed to atoms (all electrons):
               1          2          3          4          5          6
     1  C   23.038332  -1.217286  -0.336780  -4.161448   5.308722  -5.444543
     2  C   -1.217286  16.694829   0.342786   5.897026  -5.087636   0.984411
     3  O   -0.336780   0.342786   8.306568   0.263080  -0.203941   0.221430
     4  C   -4.161448   5.897026   0.263080  16.358610   1.327805  -3.176161
     5  C    5.308722  -5.087636  -0.203941   1.327805  20.853788  -6.545041
     6  C   -5.444543   0.984411   0.221430  -3.176161  -6.545041  15.077179
     7  C    1.009503  -1.616945  -0.408255  -2.488861   0.118103   0.450971
     8  C   -0.278576  -0.284410  -0.002537  -0.182332   1.372629   0.115208
     9  H   -0.023476  -0.011050   0.000327  -0.019187   0.010231   0.411143
    10  C    1.561493  -0.799672  -0.029481  -2.565178  -3.114361  -1.234571
    11  H   -0.006402  -0.004869   0.000383   0.022959   0.047123  -0.026196
    12  H   -0.002743  -0.012609  -0.001296   0.043394  -0.007628  -0.056672
    13  C   -5.572386  -3.217289   0.213802  -3.428245  -6.338585   4.681310
    14  H    0.031617  -0.072306  -0.000324  -0.050265  -0.006107   0.028572
    15  C    0.847596   0.898899   0.053052   0.905017  -0.271507  -0.475237
    16  H   -0.011420   0.058035   0.000714   0.020088  -0.021976   0.008119
    17  C   -4.762196  -4.239529  -0.091463  -1.901151   0.871635   0.306245
    18  C   -2.890163  -3.562022  -0.328681  -2.429006  -1.641682   1.120518
    19  H    0.087171   0.017997  -0.002832  -0.022089   0.008055  -0.011015
    20  B   -0.107499  -0.025651  -0.005879   0.009483  -0.000051  -0.002731
    21  N   -0.084000  -0.098264   0.023636   0.151118   0.319619  -0.045057
    22  C    0.030937  -0.093934  -0.010917  -0.087360  -0.013193  -0.021743
    23  H    0.012954   0.015847  -0.000333   0.006399   0.015152   0.009030
    24  H   -0.000425  -0.011447   0.000654  -0.004869  -0.005644  -0.004802
    25  H   -0.092008   0.071375  -0.012397   0.087737   0.132283   0.032056
    26  C   -0.064666  -0.006266  -0.009263   0.044317   0.114345  -0.000491
    27  H   -0.005981  -0.001184  -0.001173   0.005866  -0.012005  -0.002472
    28  H    0.002492   0.003531   0.001906  -0.009096   0.025715   0.009687
    29  H    0.008432  -0.000030  -0.000456  -0.016622  -0.012069  -0.000979
    30  F   -0.186375   0.014194   0.008911   0.050676  -0.018460   0.001357
    31  F    0.151637   0.055902  -0.003143   0.013368  -0.025369   0.002652
               7          8          9         10         11         12
     1  C    1.009503  -0.278576  -0.023476   1.561493  -0.006402  -0.002743
     2  C   -1.616945  -0.284410  -0.011050  -0.799672  -0.004869  -0.012609
     3  O   -0.408255  -0.002537   0.000327  -0.029481   0.000383  -0.001296
     4  C   -2.488861  -0.182332  -0.019187  -2.565178   0.022959   0.043394
     5  C    0.118103   1.372629   0.010231  -3.114361   0.047123  -0.007628
     6  C    0.450971   0.115208   0.411143  -1.234571  -0.026196  -0.056672
     7  C   10.516102  -1.475631   0.006243  -1.072810  -0.004198  -0.066423
     8  C   -1.475631   9.644678  -0.032758  -1.514034   0.419052  -0.117648
     9  H    0.006243  -0.032758   0.466415  -0.029479  -0.008035   0.001212
    10  C   -1.072810  -1.514034  -0.029479  13.827720  -0.114773   0.569744
    11  H   -0.004198   0.419052  -0.008035  -0.114773   0.459951  -0.014424
    12  H   -0.066423  -0.117648   0.001212   0.569744  -0.014424   0.495768
    13  C    0.167059  -0.556926   0.041339   0.346494  -0.008641  -0.002204
    14  H    0.006243  -0.002686  -0.000392   0.011082   0.000758  -0.000065
    15  C   -0.111323  -0.016655   0.009137  -0.232576   0.002031  -0.002322
    16  H   -0.001404   0.002953   0.000819  -0.001790  -0.000012  -0.000007
    17  C    0.404635  -0.132063  -0.004878   0.245308  -0.001340   0.001710
    18  C    1.000569  -0.317800   0.008194   0.673493  -0.003625   0.007246
    19  H    0.003763  -0.001240  -0.000339   0.001179   0.000005   0.000003
    20  B   -0.005185   0.008123   0.000164  -0.007933   0.000162  -0.000066
    21  N    0.052565   0.036813  -0.000212  -0.578959   0.000480  -0.028496
    22  C   -0.005181   0.039851  -0.000368  -0.037417   0.001100  -0.006222
    23  H   -0.005351  -0.008200   0.000077  -0.041070  -0.000578   0.000907
    24  H    0.016976   0.014015  -0.000024   0.016548   0.000236  -0.001102
    25  H   -0.082190  -0.021925   0.000577  -0.078176  -0.000285  -0.000006
    26  C    0.090537  -0.337929  -0.000814  -0.267310   0.000298   0.014911
    27  H    0.015574  -0.019714  -0.000036   0.040672  -0.000224   0.006899
    28  H   -0.006780   0.046415   0.000095  -0.049547   0.000949  -0.013114
    29  H   -0.016167  -0.012491  -0.000209   0.033036   0.000742  -0.008439
    30  F   -0.020083   0.001354  -0.000057  -0.005665   0.000018  -0.000079
    31  F   -0.003683  -0.000107   0.000014  -0.000390  -0.000000  -0.000004
              13         14         15         16         17         18
     1  C   -5.572386   0.031617   0.847596  -0.011420  -4.762196  -2.890163
     2  C   -3.217289  -0.072306   0.898899   0.058035  -4.239529  -3.562022
     3  O    0.213802  -0.000324   0.053052   0.000714  -0.091463  -0.328681
     4  C   -3.428245  -0.050265   0.905017   0.020088  -1.901151  -2.429006
     5  C   -6.338585  -0.006107  -0.271507  -0.021976   0.871635  -1.641682
     6  C    4.681310   0.028572  -0.475237   0.008119   0.306245   1.120518
     7  C    0.167059   0.006243  -0.111323  -0.001404   0.404635   1.000569
     8  C   -0.556926  -0.002686  -0.016655   0.002953  -0.132063  -0.317800
     9  H    0.041339  -0.000392   0.009137   0.000819  -0.004878   0.008194
    10  C    0.346494   0.011082  -0.232576  -0.001790   0.245308   0.673493
    11  H   -0.008641   0.000758   0.002031  -0.000012  -0.001340  -0.003625
    12  H   -0.002204  -0.000065  -0.002322  -0.000007   0.001710   0.007246
    13  C   16.632883   0.418684  -1.278391  -0.044350   1.416190   2.930137
    14  H    0.418684   0.441770  -0.059171  -0.005947   0.028660   0.029908
    15  C   -1.278391  -0.059171  10.066498   0.363626  -2.083450  -2.562216
    16  H   -0.044350  -0.005947   0.363626   0.443827  -0.088021   0.042733
    17  C    1.416190   0.028660  -2.083450  -0.088021  16.281528  -0.461244
    18  C    2.930137   0.029908  -2.562216   0.042733  -0.461244  15.075426
    19  H   -0.069260   0.001239   0.001255  -0.006169   0.414686  -0.085701
    20  B    0.024850   0.000553   0.126650   0.000433   0.098609   0.288112
    21  N   -0.047839   0.000097  -0.002913  -0.000100  -0.004139  -0.066267
    22  C   -0.017081   0.000223  -0.000606  -0.000126   0.013115   0.023863
    23  H    0.002725  -0.000007  -0.000279  -0.000005  -0.001296  -0.006688
    24  H   -0.003477  -0.000002   0.000565  -0.000005   0.001436  -0.001250
    25  H    0.012741  -0.000446  -0.000934   0.000268  -0.022697  -0.026282
    26  C    0.002345   0.000110  -0.002660  -0.000031   0.003621   0.013736
    27  H    0.000492   0.000004  -0.000354  -0.000003   0.000450   0.002332
    28  H    0.000086  -0.000024   0.000284   0.000004  -0.000344  -0.001458
    29  H    0.000198   0.000048  -0.000034  -0.000001   0.000134   0.000998
    30  F   -0.009661   0.000022   0.028594  -0.000071   0.210203  -0.060736
    31  F    0.008323   0.000008   0.021939   0.000470  -0.332541   0.142122
              19         20         21         22         23         24
     1  C    0.087171  -0.107499  -0.084000   0.030937   0.012954  -0.000425
     2  C    0.017997  -0.025651  -0.098264  -0.093934   0.015847  -0.011447
     3  O   -0.002832  -0.005879   0.023636  -0.010917  -0.000333   0.000654
     4  C   -0.022089   0.009483   0.151118  -0.087360   0.006399  -0.004869
     5  C    0.008055  -0.000051   0.319619  -0.013193   0.015152  -0.005644
     6  C   -0.011015  -0.002731  -0.045057  -0.021743   0.009030  -0.004802
     7  C    0.003763  -0.005185   0.052565  -0.005181  -0.005351   0.016976
     8  C   -0.001240   0.008123   0.036813   0.039851  -0.008200   0.014015
     9  H   -0.000339   0.000164  -0.000212  -0.000368   0.000077  -0.000024
    10  C    0.001179  -0.007933  -0.578959  -0.037417  -0.041070   0.016548
    11  H    0.000005   0.000162   0.000480   0.001100  -0.000578   0.000236
    12  H    0.000003  -0.000066  -0.028496  -0.006222   0.000907  -0.001102
    13  C   -0.069260   0.024850  -0.047839  -0.017081   0.002725  -0.003477
    14  H    0.001239   0.000553   0.000097   0.000223  -0.000007  -0.000002
    15  C    0.001255   0.126650  -0.002913  -0.000606  -0.000279   0.000565
    16  H   -0.006169   0.000433  -0.000100  -0.000126  -0.000005  -0.000005
    17  C    0.414686   0.098609  -0.004139   0.013115  -0.001296   0.001436
    18  C   -0.085701   0.288112  -0.066267   0.023863  -0.006688  -0.001250
    19  H    0.450402  -0.029030   0.000100   0.000160   0.000066  -0.000032
    20  B   -0.029030   3.509960   0.001757   0.005188   0.000414   0.000776
    21  N    0.000100   0.001757   7.048682   0.260011  -0.070346  -0.057085
    22  C    0.000160   0.005188   0.260011   5.405980   0.414115   0.397070
    23  H    0.000066   0.000414  -0.070346   0.414115   0.592419  -0.061393
    24  H   -0.000032   0.000776  -0.057085   0.397070  -0.061393   0.567023
    25  H   -0.000745  -0.012999  -0.051636   0.341525  -0.049347  -0.014173
    26  C    0.000003  -0.000394   0.328287  -0.176061  -0.011164  -0.012947
    27  H    0.000001  -0.000278  -0.064212  -0.006929  -0.006799   0.001007
    28  H   -0.000005   0.000039  -0.040865  -0.003732   0.019109   0.001309
    29  H    0.000004   0.000057  -0.057201   0.012973  -0.000606  -0.001110
    30  F    0.000164   0.425625   0.000473  -0.003668  -0.000149  -0.000974
    31  F    0.007835   0.355574  -0.000164  -0.000482   0.000071  -0.000204
              25         26         27         28         29         30
     1  C   -0.092008  -0.064666  -0.005981   0.002492   0.008432  -0.186375
     2  C    0.071375  -0.006266  -0.001184   0.003531  -0.000030   0.014194
     3  O   -0.012397  -0.009263  -0.001173   0.001906  -0.000456   0.008911
     4  C    0.087737   0.044317   0.005866  -0.009096  -0.016622   0.050676
     5  C    0.132283   0.114345  -0.012005   0.025715  -0.012069  -0.018460
     6  C    0.032056  -0.000491  -0.002472   0.009687  -0.000979   0.001357
     7  C   -0.082190   0.090537   0.015574  -0.006780  -0.016167  -0.020083
     8  C   -0.021925  -0.337929  -0.019714   0.046415  -0.012491   0.001354
     9  H    0.000577  -0.000814  -0.000036   0.000095  -0.000209  -0.000057
    10  C   -0.078176  -0.267310   0.040672  -0.049547   0.033036  -0.005665
    11  H   -0.000285   0.000298  -0.000224   0.000949   0.000742   0.000018
    12  H   -0.000006   0.014911   0.006899  -0.013114  -0.008439  -0.000079
    13  C    0.012741   0.002345   0.000492   0.000086   0.000198  -0.009661
    14  H   -0.000446   0.000110   0.000004  -0.000024   0.000048   0.000022
    15  C   -0.000934  -0.002660  -0.000354   0.000284  -0.000034   0.028594
    16  H    0.000268  -0.000031  -0.000003   0.000004  -0.000001  -0.000071
    17  C   -0.022697   0.003621   0.000450  -0.000344   0.000134   0.210203
    18  C   -0.026282   0.013736   0.002332  -0.001458   0.000998  -0.060736
    19  H   -0.000745   0.000003   0.000001  -0.000005   0.000004   0.000164
    20  B   -0.012999  -0.000394  -0.000278   0.000039   0.000057   0.425625
    21  N   -0.051636   0.328287  -0.064212  -0.040865  -0.057201   0.000473
    22  C    0.341525  -0.176061  -0.006929  -0.003732   0.012973  -0.003668
    23  H   -0.049347  -0.011164  -0.006799   0.019109  -0.000606  -0.000149
    24  H   -0.014173  -0.012947   0.001007   0.001309  -0.001110  -0.000974
    25  H    0.604083   0.007395   0.009055  -0.005152  -0.002967   0.009904
    26  C    0.007395   5.442979   0.404318   0.375641   0.428259  -0.000253
    27  H    0.009055   0.404318   0.505771  -0.049918  -0.005595   0.000058
    28  H   -0.005152   0.375641  -0.049918   0.580154  -0.050579   0.000025
    29  H   -0.002967   0.428259  -0.005595  -0.050579   0.536597  -0.000008
    30  F    0.009904  -0.000253   0.000058   0.000025  -0.000008   8.688475
    31  F    0.001414  -0.000017   0.000005   0.000002  -0.000003  -0.094890
              31
     1  C    0.151637
     2  C    0.055902
     3  O   -0.003143
     4  C    0.013368
     5  C   -0.025369
     6  C    0.002652
     7  C   -0.003683
     8  C   -0.000107
     9  H    0.000014
    10  C   -0.000390
    11  H   -0.000000
    12  H   -0.000004
    13  C    0.008323
    14  H    0.000008
    15  C    0.021939
    16  H    0.000470
    17  C   -0.332541
    18  C    0.142122
    19  H    0.007835
    20  B    0.355574
    21  N   -0.000164
    22  C   -0.000482
    23  H    0.000071
    24  H   -0.000204
    25  H    0.001414
    26  C   -0.000017
    27  H    0.000005
    28  H    0.000002
    29  H   -0.000003
    30  F   -0.094890
    31  F    8.709859
 Mulliken charges:
               1
     1  C   -0.842515
     2  C    1.307570
     3  O    0.011904
     4  C    1.334927
     5  C   -1.199949
     6  C   -0.412175
     7  C   -0.468373
     8  C   -0.385429
     9  H    0.175330
    10  C    0.448425
    11  H    0.237355
    12  H    0.199775
    13  C   -0.305322
    14  H    0.198147
    15  C   -0.224514
    16  H    0.239348
    17  C   -0.171812
    18  C   -0.914566
    19  H    0.234368
    20  B    0.341168
    21  N    0.074119
    22  C   -0.461088
    23  H    0.174329
    24  H    0.163347
    25  H    0.163953
    26  C   -0.380837
    27  H    0.184377
    28  H    0.163172
    29  H    0.164089
    30  F   -0.038923
    31  F   -0.010197
 Sum of Mulliken charges =  -0.00000
 Mulliken charges with hydrogens summed into heavy atoms:
               1
     1  C   -0.842515
     2  C    1.307570
     3  O    0.011904
     4  C    1.334927
     5  C   -1.199949
     6  C   -0.236845
     7  C   -0.468373
     8  C   -0.148074
    10  C    0.648200
    13  C   -0.107175
    15  C    0.014834
    17  C    0.062555
    18  C   -0.914566
    20  B    0.341168
    21  N    0.074119
    22  C    0.040541
    26  C    0.130800
    30  F   -0.038923
    31  F   -0.010197
 Electronic spatial extent (au):  <R**2>=          11484.0474
 Charge=             -0.0000 electrons
 Dipole moment (field-independent basis, Debye):
    X=             -0.4301    Y=              1.9823    Z=             -2.0339  Tot=              2.8725
 Quadrupole moment (field-independent basis, Debye-Ang):
   XX=           -110.7562   YY=            -88.3958   ZZ=           -102.8101
   XY=             -3.6613   XZ=             -7.0992   YZ=              5.4212
 Traceless Quadrupole moment (field-independent basis, Debye-Ang):
   XX=            -10.1022   YY=             12.2583   ZZ=             -2.1561
   XY=             -3.6613   XZ=             -7.0992   YZ=              5.4212
 Octapole moment (field-independent basis, Debye-Ang**2):
  XXX=           -524.3333  YYY=           -902.3814  ZZZ=           -156.5288  XYY=           -203.8353
  XXY=           -364.3088  XXZ=            -55.3360  XZZ=           -174.1404  YZZ=           -308.1268
  YYZ=              4.3499  XYZ=              8.4075
 Hexadecapole moment (field-independent basis, Debye-Ang**3):
 XXXX=          -2718.0580 YYYY=          -9399.5863 ZZZZ=          -2175.1597 XXXY=           -850.2929
 XXXZ=           -223.8330 YYYX=          -1076.3160 YYYZ=           -190.5409 ZZZX=           -297.6727
 ZZZY=           -514.5246 XXYY=          -2262.2774 XXZZ=           -850.2441 YYZZ=          -1868.7932
 XXYZ=           -118.8899 YYXZ=            -35.5811 ZZXY=           -256.7912
 N-N= 1.370911086912D+03 E-N=-4.836415716881D+03  KE= 8.919933912700D+02
 Breneman (CHELPG) radii used.
 Generate Potential Derived Charges using the Breneman model, NDens= 1.
 Grid spacing= 0.300 Box extension= 2.800
 NStep X,Y,Z=   36     48     44   Total possible points=       76032
 Number of Points to Fit=   18334

 **********************************************************************

            Electrostatic Properties Using The SCF Density.

 **********************************************************************

       Atomic Center    1 is at   2.099379  2.167042  0.195915
       Atomic Center    2 is at   1.908591  2.533470 -1.140210
       Atomic Center    3 is at   1.620371  3.117834  1.039100
       Atomic Center    4 is at   1.256044  3.828591 -1.101446
       Atomic Center    5 is at   1.118285  4.125430  0.251674
       Atomic Center    6 is at   0.767300  4.706464 -2.069991
       Atomic Center    7 is at   0.510153  5.291420  0.739540
       Atomic Center    8 is at   0.153156  5.861385 -1.622210
       Atomic Center    9 is at   0.858311  4.486892 -3.126675
       Atomic Center   10 is at   0.033130  6.150830 -0.256970
       Atomic Center   11 is at  -0.242443  6.573012 -2.338000
       Atomic Center   12 is at  -0.445543  7.078054  0.028877
       Atomic Center   13 is at   2.332611  1.674995 -2.148953
       Atomic Center   14 is at   2.194113  1.936838 -3.191901
       Atomic Center   15 is at   2.937152  0.474620 -1.794219
       Atomic Center   16 is at   3.273673 -0.206967 -2.566101
       Atomic Center   17 is at   3.116932  0.136510 -0.453713
       Atomic Center   18 is at   2.704363  0.974648  0.592811
       Atomic Center   19 is at   3.593379 -0.805762 -0.207549
       Atomic Center   20 is at   2.932807  0.569477  2.061494
       Atomic Center   21 is at   0.354840  5.523371  2.108224
       Atomic Center   22 is at   1.550867  5.409672  2.937294
       Atomic Center   23 is at   2.228598  6.264337  2.788028
       Atomic Center   24 is at   1.251115  5.385357  3.986734
       Atomic Center   25 is at   2.087548  4.489732  2.719795
       Atomic Center   26 is at  -0.480338  6.644734  2.490144
       Atomic Center   27 is at  -0.652655  6.595936  3.566659
       Atomic Center   28 is at  -0.022765  7.621215  2.262237
       Atomic Center   29 is at  -1.448816  6.585189  1.990322
       Atomic Center   30 is at   2.599404  1.336831  3.093033
       Atomic Center   31 is at   3.498341 -0.599136  2.366017
   18334 points will be used for fitting atomic charges
 Fitting point charges to electrostatic potential
 Charges from ESP fit, RMS=   0.00442 RRMS=   0.35547:
 ESP charges:
               1
     1  C    0.373252
     2  C   -0.020717
     3  O   -0.299400
     4  C    0.037081
     5  C    0.036672
     6  C   -0.216333
     7  C    0.338672
     8  C   -0.129530
     9  H    0.140940
    10  C   -0.253511
    11  H    0.119328
    12  H    0.150027
    13  C   -0.103490
    14  H    0.131802
    15  C   -0.159977
    16  H    0.113487
    17  C   -0.021233
    18  C   -0.432406
    19  H    0.105603
    20  B    0.892726
    21  N   -0.393123
    22  C    0.100956
    23  H   -0.004471
    24  H    0.048102
    25  H    0.038086
    26  C   -0.089161
    27  H    0.094839
    28  H    0.057063
    29  H    0.060775
    30  F   -0.351030
    31  F   -0.365030
 Sum of ESP charges =  -0.00000
 ESP charges with hydrogens summed into heavy atoms:
               1
     1  C    0.373252
     2  C   -0.020717
     3  O   -0.299400
     4  C    0.037081
     5  C    0.036672
     6  C   -0.075393
     7  C    0.338672
     8  C   -0.010202
    10  C   -0.103484
    13  C    0.028313
    15  C   -0.046490
    17  C    0.084370
    18  C   -0.432406
    20  B    0.892726
    21  N   -0.393123
    22  C    0.182673
    26  C    0.123516
    30  F   -0.351030
    31  F   -0.365030
 Charge=  -0.00000 Dipole=    -0.4290     2.0464    -2.1663 Tot=     3.0108
 -----------------------------------------------------------------

              Electrostatic Properties (Atomic Units)

 -----------------------------------------------------------------
    Center     Electric         -------- Electric Field --------
               Potential          X             Y             Z
 -----------------------------------------------------------------
    1 Atom    -14.699162
    2 Atom    -14.753740
    3 Atom    -22.298903
    4 Atom    -14.758746
    5 Atom    -14.713771
    6 Atom    -14.769624
    7 Atom    -14.724030
    8 Atom    -14.770109
    9 Atom     -1.095519
   10 Atom    -14.771094
   11 Atom     -1.102770
   12 Atom     -1.097818
   13 Atom    -14.747660
   14 Atom     -1.081354
   15 Atom    -14.760536
   16 Atom     -1.092027
   17 Atom    -14.751821
   18 Atom    -14.765707
   19 Atom     -1.093060
   20 Atom    -11.350332
   21 Atom    -18.373574
   22 Atom    -14.752850
   23 Atom     -1.119653
   24 Atom     -1.114592
   25 Atom     -1.119877
   26 Atom    -14.744178
   27 Atom     -1.105874
   28 Atom     -1.110523
   29 Atom     -1.106653
   30 Atom    -26.592973
   31 Atom    -26.590877
 -----------------------------------------------------------------
 Unable to Open any file for archive entry.
 1\1\GINC-IRENE4762\SP\RwB97XD\GenECP\C14H12B1F2N1O1\PENASFRA\10-Apr-20
 24\0\\# wb97xd/genecp scrf=(solvent=toluene,pcm) nosymm pop=(chelpg) s
 cfcyc=300\\f_dibenzofuran_chelpg\\0,1\C,0,2.099379,2.167042,0.195915\C
 ,0,1.908591,2.53347,-1.14021\O,0,1.620371,3.117834,1.0391\C,0,1.256044
 ,3.828591,-1.101446\C,0,1.118285,4.12543,0.251674\C,0,0.7673,4.706464,
 -2.069991\C,0,0.510153,5.29142,0.73954\C,0,0.153156,5.861385,-1.62221\
 H,0,0.858311,4.486892,-3.126675\C,0,0.03313,6.15083,-0.25697\H,0,-0.24
 2443,6.573012,-2.338\H,0,-0.445543,7.078054,0.028877\C,0,2.332611,1.67
 4995,-2.148953\H,0,2.194113,1.936838,-3.191901\C,0,2.937152,0.47462,-1
 .794219\H,0,3.273673,-0.206967,-2.566101\C,0,3.116932,0.13651,-0.45371
 3\C,0,2.704363,0.974648,0.592811\H,0,3.593379,-0.805762,-0.207549\B,0,
 2.932807,0.569477,2.061494\N,0,0.35484,5.523371,2.108224\C,0,1.550867,
 5.409672,2.937294\H,0,2.228598,6.264337,2.788028\H,0,1.251115,5.385357
 ,3.986734\H,0,2.087548,4.489732,2.719795\C,0,-0.480338,6.644734,2.4901
 44\H,0,-0.652655,6.595936,3.566659\H,0,-0.022765,7.621215,2.262237\H,0
 ,-1.448816,6.585189,1.990322\F,0,2.599404,1.336831,3.093033\F,0,3.4983
 41,-0.599136,2.366017\\Version=AS64L-G16RevC.02\HF=-895.3114628\RMSD=7
 .016e-09\Dipole=-0.1692333,0.7798781,-0.8001895\Quadrupole=-7.5107384,
 9.1137304,-1.602992,-2.7221111,-5.2780782,4.0305231\PG=C01 [X(C14H12B1
 F2N1O1)]\\@
 The archive entry for this job was punched.


 READER, WHETHER YOU BE DILETTANTE OR PROFESSOR ... SHOW YOURSELF TO BE
 MORE HUMAN THAN CRITICAL, AND THEN YOUR PLEASURE WILL INCREASE.
                                           -- DOMENICO SCARLATTI (1738)
 Job cpu time:       0 days  1 hours 12 minutes 48.6 seconds.
 Elapsed time:       0 days  0 hours  0 minutes 46.1 seconds.
 File lengths (MBytes):  RWF=    235 Int=      0 D2E=      0 Chk=     17 Scr=      1
 Normal termination of Gaussian 16 at Wed Apr 10 16:56:38 2024.
