 Entering Gaussian System, Link 0=/ccc/products/gaussian-16-C.02/system/default/g16/g16
 Input=f_indole_chelpg.gjf
 Output=f_indole_chelpg.log
 Initial command:
 /ccc/products/gaussian-16-C.02/system/default/g16/l1.exe "/ccc/scratch/cont003/gen7343/penasfra/flp/b-n_flp/f_indole/reac/Gau-1555142.inp" -scrdir="/ccc/scratch/cont003/gen7343/penasfra/flp/b-n_flp/f_indole/reac/"
 Entering Link 1 = /ccc/products/gaussian-16-C.02/system/default/g16/l1.exe PID=   1555192.
  
 Copyright (c) 1988-2021, Gaussian, Inc.  All Rights Reserved.
  
 This is part of the Gaussian(R) 16 program.  It is based on
 the Gaussian(R) 09 system (copyright 2009, Gaussian, Inc.),
 the Gaussian(R) 03 system (copyright 2003, Gaussian, Inc.),
 the Gaussian(R) 98 system (copyright 1998, Gaussian, Inc.),
 the Gaussian(R) 94 system (copyright 1995, Gaussian, Inc.),
 the Gaussian 92(TM) system (copyright 1992, Gaussian, Inc.),
 the Gaussian 90(TM) system (copyright 1990, Gaussian, Inc.),
 the Gaussian 88(TM) system (copyright 1988, Gaussian, Inc.),
 the Gaussian 86(TM) system (copyright 1986, Carnegie Mellon
 University), and the Gaussian 82(TM) system (copyright 1983,
 Carnegie Mellon University). Gaussian is a federally registered
 trademark of Gaussian, Inc.
  
 This software contains proprietary and confidential information,
 including trade secrets, belonging to Gaussian, Inc.
  
 This software is provided under written license and may be
 used, copied, transmitted, or stored only in accord with that
 written license.
  
 The following legend is applicable only to US Government
 contracts under FAR:
  
                    RESTRICTED RIGHTS LEGEND
  
 Use, reproduction and disclosure by the US Government is
 subject to restrictions as set forth in subparagraphs (a)
 and (c) of the Commercial Computer Software - Restricted
 Rights clause in FAR 52.227-19.
  
 Gaussian, Inc.
 340 Quinnipiac St., Bldg. 40, Wallingford CT 06492
  
  
 ---------------------------------------------------------------
 Warning -- This program may not be used in any manner that
 competes with the business of Gaussian, Inc. or will provide
 assistance to any competitor of Gaussian, Inc.  The licensee
 of this program is prohibited from giving any competitor of
 Gaussian, Inc. access to this program.  By using this program,
 the user acknowledges that Gaussian, Inc. is engaged in the
 business of creating and licensing software in the field of
 computational chemistry and represents and warrants to the
 licensee that it is not a competitor of Gaussian, Inc. and that
 it will not use this program in any manner prohibited above.
 ---------------------------------------------------------------
  

 Cite this work as:
 Gaussian 16, Revision C.02,
 M. J. Frisch, G. W. Trucks, H. B. Schlegel, G. E. Scuseria, 
 M. A. Robb, J. R. Cheeseman, G. Scalmani, V. Barone, 
 G. A. Petersson, H. Nakatsuji, X. Li, M. Caricato, A. V. Marenich, 
 J. Bloino, B. G. Janesko, R. Gomperts, B. Mennucci, H. P. Hratchian, 
 J. V. Ortiz, A. F. Izmaylov, J. L. Sonnenberg, D. Williams-Young, 
 F. Ding, F. Lipparini, F. Egidi, J. Goings, B. Peng, A. Petrone, 
 T. Henderson, D. Ranasinghe, V. G. Zakrzewski, J. Gao, N. Rega, 
 G. Zheng, W. Liang, M. Hada, M. Ehara, K. Toyota, R. Fukuda, 
 J. Hasegawa, M. Ishida, T. Nakajima, Y. Honda, O. Kitao, H. Nakai, 
 T. Vreven, K. Throssell, J. A. Montgomery, Jr., J. E. Peralta, 
 F. Ogliaro, M. J. Bearpark, J. J. Heyd, E. N. Brothers, K. N. Kudin, 
 V. N. Staroverov, T. A. Keith, R. Kobayashi, J. Normand, 
 K. Raghavachari, A. P. Rendell, J. C. Burant, S. S. Iyengar, 
 J. Tomasi, M. Cossi, J. M. Millam, M. Klene, C. Adamo, R. Cammi, 
 J. W. Ochterski, R. L. Martin, K. Morokuma, O. Farkas, 
 J. B. Foresman, and D. J. Fox, Gaussian, Inc., Wallingford CT, 2019.
 
 ******************************************
 Gaussian 16:  AS64L-G16RevC.02  7-Dec-2021
                10-Apr-2024 
 ******************************************
 %nprocshared=128
 Will use up to  128 processors via shared memory.
 %mem=30GB
 %chk=f_indole_chelpg.chk
 ----------------------------------------------------------------------
 # wb97xd/genecp scrf=(solvent=toluene,pcm) nosymm pop=(chelpg) scfcyc=
 300
 ----------------------------------------------------------------------
 1/38=1,172=1/1;
 2/12=2,15=1,17=6,18=5,40=1/2;
 3/5=7,11=2,16=1,17=8,25=1,30=1,70=2201,72=13,74=-58/1,2,3;
 4//1;
 5/5=2,7=300,38=5,53=13/2;
 6/7=2,8=2,9=2,10=2,15=8,20=3,28=1/1,2;
 99/5=1,9=1/99;
 ---------------
 f_indole_chelpg
 ---------------
 Symbolic Z-matrix:
 Charge =  0 Multiplicity = 1
 C                    -1.11878  -1.23345  -0.19162 
 C                    -2.49578  -1.27998  -0.09791 
 C                    -1.83649   0.88894  -0.14526 
 C                    -1.93717   2.28924  -0.13855 
 C                    -3.19386   2.85425  -0.05288 
 C                    -4.34073   2.02153   0.02541 
 C                    -4.24656   0.65006   0.0194 
 C                    -2.97397   0.05683  -0.06698 
 H                    -1.05346   2.91535  -0.19842 
 H                    -5.3169    2.4914    0.09199 
 H                    -5.1371    0.03409   0.08028 
 N                    -0.72383   0.10177  -0.22094 
 H                    -3.08342  -2.18477  -0.05722 
 B                    -0.22261  -2.46878  -0.25024 
 C                     0.62252   0.63276  -0.30717 
 H                     0.85353   1.22731   0.58055 
 H                     1.33592  -0.18288  -0.37713 
 H                     0.723     1.26402  -1.19366 
 C                    -3.37204   4.34975  -0.0407 
 H                    -3.87389   4.6746    0.87536 
 H                    -2.41312   4.86737  -0.10367 
 H                    -3.98961   4.67508  -0.88292 
 F                     1.10998  -2.43483  -0.34205 
 F                    -0.76154  -3.68756  -0.21007 
 
                          Input orientation:                          
 ---------------------------------------------------------------------
 Center     Atomic      Atomic             Coordinates (Angstroms)
 Number     Number       Type             X           Y           Z
 ---------------------------------------------------------------------
      1          6           0       -1.118782   -1.233448   -0.191624
      2          6           0       -2.495780   -1.279978   -0.097905
      3          6           0       -1.836491    0.888936   -0.145263
      4          6           0       -1.937167    2.289243   -0.138552
      5          6           0       -3.193858    2.854248   -0.052875
      6          6           0       -4.340734    2.021533    0.025407
      7          6           0       -4.246560    0.650058    0.019399
      8          6           0       -2.973972    0.056829   -0.066982
      9          1           0       -1.053456    2.915348   -0.198416
     10          1           0       -5.316903    2.491398    0.091987
     11          1           0       -5.137097    0.034086    0.080278
     12          7           0       -0.723833    0.101772   -0.220941
     13          1           0       -3.083419   -2.184766   -0.057222
     14          5           0       -0.222605   -2.468779   -0.250237
     15          6           0        0.622523    0.632758   -0.307170
     16          1           0        0.853533    1.227305    0.580554
     17          1           0        1.335918   -0.182881   -0.377125
     18          1           0        0.723004    1.264024   -1.193662
     19          6           0       -3.372039    4.349748   -0.040697
     20          1           0       -3.873893    4.674603    0.875355
     21          1           0       -2.413124    4.867372   -0.103671
     22          1           0       -3.989610    4.675083   -0.882917
     23          9           0        1.109975   -2.434826   -0.342049
     24          9           0       -0.761537   -3.687555   -0.210074
 ---------------------------------------------------------------------
                    Distance matrix (angstroms):
                    1          2          3          4          5
     1  C    0.000000
     2  C    1.380968   0.000000
     3  C    2.240930   2.267398   0.000000
     4  C    3.616894   3.612899   1.403937   0.000000
     5  C    4.586333   4.192990   2.390279   1.380523   0.000000
     6  C    4.585082   3.784050   2.753750   2.423981   1.419460
     7  C    3.657201   2.608454   2.427470   2.836401   2.443739
     8  C    2.263201   1.420097   1.411522   2.462470   2.806083
     9  H    4.149316   4.437472   2.173089   1.084683   2.146214
    10  H    5.619531   4.713605   3.838937   3.393616   2.158695
    11  H    4.222254   2.955515   3.416963   3.920864   3.427422
    12  N    1.392716   2.250370   1.365050   2.502798   3.702080
    13  H    2.186977   1.079637   3.318166   4.619228   5.040226
    14  B    1.527289   2.569782   3.726915   5.058752   6.099337
    15  C    2.555038   3.664173   2.477618   3.053586   4.423172
    16  H    3.246782   4.238475   2.806694   3.071292   4.407896
    17  H    2.676500   3.995434   3.356595   4.108698   5.463347
    18  H    3.260924   4.246552   2.791209   3.039875   4.378586
    19  C    6.022626   5.697799   3.787619   2.512790   1.506126
    20  H    6.605615   6.188979   4.418591   3.235561   2.153544
    21  H    6.237232   6.147908   4.020222   2.621927   2.159813
    22  H    6.605322   6.189550   4.417574   3.234012   2.153516
    23  F    2.536394   3.794041   4.446097   5.625239   6.825020
    24  F    2.480041   2.969277   4.701489   6.091743   6.981123
                    6          7          8          9         10
     6  C    0.000000
     7  C    1.374718   0.000000
     8  C    2.395128   1.406720   0.000000
     9  H    3.413971   3.921083   3.446272   0.000000
    10  H    1.085409   2.131065   3.382562   4.294304   0.000000
    11  H    2.141763   1.084520   2.168251   5.005543   2.463909
    12  N    4.102212   3.573232   2.255848   2.832908   5.186958
    13  H    4.390970   3.065126   2.244287   5.491070   5.184325
    14  B    6.099005   5.098241   3.739291   5.448103   7.118451
    15  C    5.164613   4.880053   3.650227   2.833893   6.236237
    16  H    5.283881   5.163241   4.054517   2.663248   6.317508
    17  H    6.102938   5.658187   4.327679   3.916640   7.185531
    18  H    5.263211   5.152188   4.048995   2.621678   6.296016
    19  C    2.522563   3.802118   4.311415   2.730972   2.693244
    20  H    2.824736   4.131405   4.798093   3.493255   2.731726
    21  H    3.439643   4.600258   4.843265   2.380771   3.757056
    22  H    2.826600   4.132920   4.798494   3.490875   2.735073
    23  F    7.050134   6.191900   4.791934   5.772818   8.109305
    24  F    6.742387   5.568925   4.351523   6.609363   7.682582
                   11         12         13         14         15
    11  H    0.000000
    12  N    4.424049   0.000000
    13  H    3.026517   3.289788   0.000000
    14  B    5.525016   2.619126   2.881349   0.000000
    15  C    5.803598   1.449847   4.662073   3.215123   0.000000
    16  H    6.128760   2.096975   5.248674   3.938188   1.093117
    17  H    6.492782   2.085185   4.862142   2.769553   1.085861
    18  H    6.121802   2.095317   5.260656   3.964599   1.092914
    19  C    4.664226   5.009070   6.540906   7.513664   5.462925
    20  H    4.874652   5.659993   6.967460   8.101035   6.160571
    21  H    5.551083   5.057509   7.084074   7.657608   5.214261
    22  H    4.876815   5.658506   6.968535   8.100949   6.159841
    23  F    6.730512   3.132387   4.210488   1.336171   3.106267
    24  F    5.751560   3.789530   2.769995   1.333220   4.537638
                   16         17         18         19         20
    16  H    0.000000
    17  H    1.771572   0.000000
    18  H    1.779390   1.770856   0.000000
    19  C    5.290658   6.543911   5.255511   0.000000
    20  H    5.858270   7.232288   6.086406   1.093864   0.000000
    21  H    4.938552   6.295645   4.899744   1.091521   1.769039
    22  H    6.122496   7.226125   5.825858   1.093879   1.762076
    23  F    3.785256   2.263523   3.815296   8.136935   8.767268
    24  F    5.233488   4.087782   5.262076   8.452316   8.988359
                   21         22         23         24
    21  H    0.000000
    22  H    1.769041   0.000000
    23  F    8.111174   8.766362   0.000000
    24  F    8.713543   8.989265   2.255949   0.000000
 Symmetry turned off by external request.
 Stoichiometry    C10H10BF2N
 Framework group  C1[X(C10H10BF2N)]
 Deg. of freedom    66
 Full point group                 C1      NOp   1
 Rotational constants (GHZ):           1.7446536           0.3817404           0.3144404
 General basis read from cards:  (5D, 7F)
 ======================================================================================================
                                       Pseudopotential Parameters
 ======================================================================================================
  Center     Atomic      Valence      Angular      Power
  Number     Number     Electrons     Momentum     of R      Exponent        Coefficient   SO-Coeffient
 ======================================================================================================
    1          6
                                   No pseudopotential on this center.
    2          6
                                   No pseudopotential on this center.
    3          6
                                   No pseudopotential on this center.
    4          6
                                   No pseudopotential on this center.
    5          6
                                   No pseudopotential on this center.
    6          6
                                   No pseudopotential on this center.
    7          6
                                   No pseudopotential on this center.
    8          6
                                   No pseudopotential on this center.
    9          1
                                   No pseudopotential on this center.
   10          1
                                   No pseudopotential on this center.
   11          1
                                   No pseudopotential on this center.
   12          7
                                   No pseudopotential on this center.
   13          1
                                   No pseudopotential on this center.
   14          5
                                   No pseudopotential on this center.
   15          6
                                   No pseudopotential on this center.
   16          1
                                   No pseudopotential on this center.
   17          1
                                   No pseudopotential on this center.
   18          1
                                   No pseudopotential on this center.
   19          6
                                   No pseudopotential on this center.
   20          1
                                   No pseudopotential on this center.
   21          1
                                   No pseudopotential on this center.
   22          1
                                   No pseudopotential on this center.
   23          9
                                   No pseudopotential on this center.
   24          9
                                   No pseudopotential on this center.
 ======================================================================================================
   378 basis functions,   594 primitive gaussians,   392 cartesian basis functions
    50 alpha electrons       50 beta electrons
       nuclear repulsion energy       833.1429744340 Hartrees.
 NAtoms=   24 NActive=   24 NUniq=   24 SFac= 1.00D+00 NAtFMM=   60 NAOKFM=F Big=F
 Integral buffers will be    131072 words long.
 Raffenetti 2 integral format.
 Two-electron integral symmetry is turned off.
 Nuclear repulsion after empirical dispersion term =      833.1276810635 Hartrees.
 ------------------------------------------------------------------------------
 Polarizable Continuum Model (PCM)
 =================================
 Model                : PCM.
 Atomic radii         : UFF (Universal Force Field).
 Polarization charges : Total charges.
 Charge compensation  : None.
 Solution method      : On-the-fly selection.
 Cavity type          : Scaled VdW (van der Waals Surface) (Alpha=1.100).
 Cavity algorithm     : GePol (No added spheres)
                        Default sphere list used, NSphG=   24.
                        Lebedev-Laikov grids with approx.  5.0 points / Ang**2.
                        Smoothing algorithm: York/Karplus (Gamma=1.0000).
                        Polarization charges: spherical gaussians, with
                                              point-specific exponents (IZeta= 3).
                        Self-potential: point-specific (ISelfS= 7).
                        Self-field    : sphere-specific E.n sum rule (ISelfD= 2).
 Solvent              : Toluene, Eps=   2.374100 Eps(inf)=   2.238315
 ------------------------------------------------------------------------------
 One-electron integrals computed using PRISM.
   1 Symmetry operations used in ECPInt.
 ECPInt:  NShTT=    9045 NPrTT=   32160 LenC2=    8490 LenP2D=   21608.
 LDataN:  DoStor=T MaxTD1= 4 Len=   56
 Number of processors reduced to 119 by ecpmxn.
 NBasis=   378 RedAO= T EigKep=  1.54D-06  NBF=   378
 NBsUse=   375 1.00D-06 EigRej=  8.73D-07 NBFU=   375
 ExpMin= 3.15D-02 ExpMax= 1.14D+04 ExpMxC= 1.72D+03 IAcc=3 IRadAn=         5 AccDes= 0.00D+00
 Harris functional with IExCor= 4639 and IRadAn=       5 diagonalized for initial guess.
 HarFok:  IExCor= 4639 AccDes= 0.00D+00 IRadAn=         5 IDoV= 1 UseB2=F ITyADJ=14
 ICtDFT=  3500011 ScaDFX=  1.000000  1.000000  1.000000  1.000000
 FoFCou: FMM=F IPFlag=           0 FMFlag=      100000 FMFlg1=           0
         NFxFlg=           0 DoJE=T BraDBF=F KetDBF=T FulRan=T
         wScrn=  0.000000 ICntrl=       500 IOpCl=  0 I1Cent=   200000004 NGrid=           0
         NMat0=    1 NMatS0=      1 NMatT0=    0 NMatD0=    1 NMtDS0=    0 NMtDT0=    0
 Symmetry not used in FoFCou.
 Requested convergence on RMS density matrix=1.00D-08 within 300 cycles.
 Requested convergence on MAX density matrix=1.00D-06.
 Requested convergence on             energy=1.00D-06.
 No special actions if energy rises.
 Inv3:  Mode=1 IEnd=    12314028.
 Iteration    1 A*A^-1 deviation from unit magnitude is 5.00D-15 for   2019.
 Iteration    1 A*A^-1 deviation from orthogonality  is 2.63D-15 for   2025   1967.
 Iteration    1 A^-1*A deviation from unit magnitude is 4.77D-15 for   2019.
 Iteration    1 A^-1*A deviation from orthogonality  is 2.00D-15 for   2025   1967.
 Error on total polarization charges =  0.00910
 SCF Done:  E(RwB97XD) =  -666.488076045     A.U. after   15 cycles
            NFock= 15  Conv=0.77D-08     -V/T= 2.0038

 **********************************************************************

            Population analysis using the SCF Density.

 **********************************************************************

 Alpha  occ. eigenvalues --  -24.82597 -24.82086 -14.49020 -10.32540 -10.32523
 Alpha  occ. eigenvalues --  -10.31217 -10.30413 -10.29491 -10.29176 -10.29128
 Alpha  occ. eigenvalues --  -10.28975 -10.28433 -10.28120  -6.96175  -1.34550
 Alpha  occ. eigenvalues --   -1.31476  -1.10235  -0.96205  -0.91697  -0.85996
 Alpha  occ. eigenvalues --   -0.85581  -0.79636  -0.78467  -0.71859  -0.68866
 Alpha  occ. eigenvalues --   -0.68247  -0.65974  -0.62779  -0.62307  -0.58730
 Alpha  occ. eigenvalues --   -0.58685  -0.57617  -0.56227  -0.54980  -0.53833
 Alpha  occ. eigenvalues --   -0.53034  -0.52150  -0.51174  -0.51069  -0.50178
 Alpha  occ. eigenvalues --   -0.48601  -0.48399  -0.46826  -0.45472  -0.44440
 Alpha  occ. eigenvalues --   -0.42374  -0.41734  -0.36806  -0.30560  -0.29034
 Alpha virt. eigenvalues --    0.00700   0.03879   0.04859   0.05057   0.06500
 Alpha virt. eigenvalues --    0.06550   0.06763   0.07115   0.07708   0.08142
 Alpha virt. eigenvalues --    0.08797   0.08916   0.09226   0.09385   0.10577
 Alpha virt. eigenvalues --    0.11369   0.12482   0.13152   0.13529   0.14672
 Alpha virt. eigenvalues --    0.14937   0.15321   0.15650   0.16081   0.16772
 Alpha virt. eigenvalues --    0.16928   0.16977   0.17526   0.18087   0.18433
 Alpha virt. eigenvalues --    0.18648   0.19271   0.19365   0.19809   0.19910
 Alpha virt. eigenvalues --    0.20843   0.21247   0.21775   0.22060   0.22329
 Alpha virt. eigenvalues --    0.22391   0.23111   0.23443   0.24177   0.24301
 Alpha virt. eigenvalues --    0.25440   0.25722   0.26036   0.26296   0.27119
 Alpha virt. eigenvalues --    0.27845   0.28625   0.28874   0.29087   0.30178
 Alpha virt. eigenvalues --    0.30341   0.31017   0.31882   0.32584   0.32657
 Alpha virt. eigenvalues --    0.33041   0.33791   0.34606   0.34671   0.35265
 Alpha virt. eigenvalues --    0.35517   0.36018   0.36713   0.37308   0.37336
 Alpha virt. eigenvalues --    0.38008   0.38298   0.39189   0.39618   0.40033
 Alpha virt. eigenvalues --    0.40822   0.41271   0.42210   0.42716   0.43316
 Alpha virt. eigenvalues --    0.44359   0.46927   0.47461   0.49530   0.50374
 Alpha virt. eigenvalues --    0.51279   0.51739   0.52805   0.53069   0.54143
 Alpha virt. eigenvalues --    0.54874   0.56372   0.56555   0.58378   0.61053
 Alpha virt. eigenvalues --    0.61625   0.62115   0.62595   0.63869   0.64603
 Alpha virt. eigenvalues --    0.65714   0.66641   0.66814   0.67470   0.68091
 Alpha virt. eigenvalues --    0.69914   0.69977   0.70652   0.71564   0.71671
 Alpha virt. eigenvalues --    0.72259   0.72943   0.73878   0.74114   0.75882
 Alpha virt. eigenvalues --    0.76083   0.76321   0.78660   0.79481   0.79860
 Alpha virt. eigenvalues --    0.80849   0.81711   0.83788   0.84174   0.86201
 Alpha virt. eigenvalues --    0.89240   0.90480   0.91295   0.92207   0.92862
 Alpha virt. eigenvalues --    0.94199   0.94760   0.95973   0.97608   0.97664
 Alpha virt. eigenvalues --    1.00251   1.00558   1.01109   1.01520   1.03445
 Alpha virt. eigenvalues --    1.04039   1.04606   1.06274   1.07319   1.09392
 Alpha virt. eigenvalues --    1.10419   1.11797   1.13034   1.15063   1.15898
 Alpha virt. eigenvalues --    1.19259   1.19369   1.20429   1.20660   1.23360
 Alpha virt. eigenvalues --    1.24281   1.28876   1.29753   1.34120   1.37953
 Alpha virt. eigenvalues --    1.39347   1.41622   1.42352   1.43341   1.44434
 Alpha virt. eigenvalues --    1.44536   1.46163   1.48286   1.49627   1.53145
 Alpha virt. eigenvalues --    1.53346   1.54243   1.54718   1.54732   1.56049
 Alpha virt. eigenvalues --    1.57864   1.60537   1.63268   1.63415   1.64587
 Alpha virt. eigenvalues --    1.64764   1.65482   1.66833   1.67824   1.69031
 Alpha virt. eigenvalues --    1.70627   1.71413   1.73763   1.76031   1.76573
 Alpha virt. eigenvalues --    1.78094   1.80174   1.81906   1.82225   1.84835
 Alpha virt. eigenvalues --    1.86366   1.86445   1.89067   1.93844   1.94265
 Alpha virt. eigenvalues --    1.94598   1.95813   1.96985   1.98168   2.00792
 Alpha virt. eigenvalues --    2.01641   2.02963   2.03323   2.06516   2.08311
 Alpha virt. eigenvalues --    2.11437   2.11832   2.14005   2.14718   2.15136
 Alpha virt. eigenvalues --    2.16142   2.20195   2.21030   2.22076   2.24004
 Alpha virt. eigenvalues --    2.26506   2.27999   2.29056   2.29869   2.37378
 Alpha virt. eigenvalues --    2.39302   2.40728   2.43237   2.46219   2.52004
 Alpha virt. eigenvalues --    2.52191   2.52586   2.57092   2.57838   2.59644
 Alpha virt. eigenvalues --    2.60264   2.60716   2.63679   2.63722   2.64402
 Alpha virt. eigenvalues --    2.67495   2.67793   2.70365   2.71062   2.73258
 Alpha virt. eigenvalues --    2.74996   2.77516   2.80365   2.81276   2.81835
 Alpha virt. eigenvalues --    2.83964   2.85499   2.87207   2.87344   2.89951
 Alpha virt. eigenvalues --    2.91336   2.95648   2.96655   2.98750   3.00475
 Alpha virt. eigenvalues --    3.02841   3.06330   3.06840   3.10582   3.12802
 Alpha virt. eigenvalues --    3.15834   3.20252   3.20507   3.22937   3.29398
 Alpha virt. eigenvalues --    3.35401   3.42841   3.48220   3.53790   3.56998
 Alpha virt. eigenvalues --    3.60323   3.67257   3.73597   3.78475   3.79954
 Alpha virt. eigenvalues --    3.84108   3.84522   3.86346   3.87278   3.88911
 Alpha virt. eigenvalues --    3.89595   3.92829   3.94267   3.96761   4.04645
 Alpha virt. eigenvalues --    4.05978   4.06669   4.09578   4.10688   4.11148
 Alpha virt. eigenvalues --    4.20059   4.31452   4.38101   4.40857   4.52454
 Alpha virt. eigenvalues --    4.65743   4.68147   4.95092   5.10215   5.30076
 Alpha virt. eigenvalues --    6.39496   6.39892   6.43308   6.53068   6.53419
 Alpha virt. eigenvalues --    6.77082  14.77925  23.75311  23.96938  24.05196
 Alpha virt. eigenvalues --   24.08993  24.09811  24.13814  24.19055  24.25905
 Alpha virt. eigenvalues --   24.27229  24.32987  35.76108  66.94560  66.95546
          Condensed to atoms (all electrons):
               1          2          3          4          5          6
     1  C    8.737934  -2.179787   0.678212   0.722954  -0.155523  -0.478390
     2  C   -2.179787  19.168182  -6.875135  -4.640917  -0.818556   0.973807
     3  C    0.678212  -6.875135  13.204265   1.511376  -2.013879  -0.580404
     4  C    0.722954  -4.640917   1.511376  10.348499   0.837997  -0.533879
     5  C   -0.155523  -0.818556  -2.013879   0.837997   9.223424  -0.573221
     6  C   -0.478390   0.973807  -0.580404  -0.533879  -0.573221   8.823258
     7  C   -0.860955   2.641969  -1.595831  -0.515810  -1.151108   1.883148
     8  C   -0.849157  -2.002554   2.533356  -2.085069   1.042945  -2.279259
     9  H    0.021006   0.015410  -0.000458   0.369988  -0.090556   0.032731
    10  H   -0.011931   0.045829   0.008619  -0.018761  -0.040859   0.457862
    11  H    0.031564  -0.155936   0.085993   0.045475   0.026092  -0.109633
    12  N    0.282710  -0.059350  -0.042526  -0.124165  -0.031547  -0.043854
    13  H   -0.127047   0.383240   0.022843  -0.004351   0.011296  -0.014236
    14  B    0.547516   0.028809  -0.082405   0.017964  -0.002057   0.002663
    15  C    0.203623  -0.482659  -0.040207   0.306909  -0.153149   0.037159
    16  H   -0.024474   0.000144  -0.011419  -0.000613   0.005375  -0.000859
    17  H    0.035485   0.090373  -0.028737  -0.083141  -0.032787   0.010458
    18  H   -0.021134  -0.000695  -0.016275   0.004296   0.005170  -0.000098
    19  C   -0.017835  -0.372617  -0.145503   0.515040  -0.616784  -1.014401
    20  H    0.001314  -0.002948  -0.027993  -0.038314   0.025612   0.000476
    21  H   -0.003510  -0.003571   0.031832   0.121734  -0.137368  -0.024867
    22  H    0.001345  -0.002943  -0.027342  -0.037161   0.026329  -0.001504
    23  F   -0.071308   0.064879  -0.016711   0.001313  -0.001538   0.000471
    24  F    0.077886  -0.151182   0.050924  -0.001641  -0.001535  -0.000894
               7          8          9         10         11         12
     1  C   -0.860955  -0.849157   0.021006  -0.011931   0.031564   0.282710
     2  C    2.641969  -2.002554   0.015410   0.045829  -0.155936  -0.059350
     3  C   -1.595831   2.533356  -0.000458   0.008619   0.085993  -0.042526
     4  C   -0.515810  -2.085069   0.369988  -0.018761   0.045475  -0.124165
     5  C   -1.151108   1.042945  -0.090556  -0.040859   0.026092  -0.031547
     6  C    1.883148  -2.279259   0.032731   0.457862  -0.109633  -0.043854
     7  C    7.286295  -1.519145   0.025160  -0.042472   0.351588   0.015415
     8  C   -1.519145  11.507199  -0.001347  -0.013611   0.032674  -0.364381
     9  H    0.025160  -0.001347   0.513187  -0.000269   0.000449  -0.019242
    10  H   -0.042472  -0.013611  -0.000269   0.467428  -0.015942  -0.000399
    11  H    0.351588   0.032674   0.000449  -0.015942   0.473567  -0.001018
    12  N    0.015415  -0.364381  -0.019242  -0.000399  -0.001018   7.052176
    13  H   -0.017378   0.034912   0.000486   0.000330   0.001646   0.023701
    14  B    0.017668  -0.045465  -0.000081   0.000205  -0.000867  -0.075499
    15  C   -0.039831  -0.336180   0.016679  -0.000083   0.001292   0.282938
    16  H   -0.000676   0.020572  -0.009621  -0.000007  -0.000075  -0.034681
    17  H    0.016892   0.016339   0.006958   0.000151  -0.000357  -0.058834
    18  H   -0.000286   0.019998  -0.008656   0.000005  -0.000081  -0.035352
    19  C   -0.166570  -0.091075  -0.048642  -0.036383   0.014193   0.007716
    20  H   -0.001183   0.005780   0.000213  -0.002550   0.000506   0.000785
    21  H   -0.005532  -0.001381  -0.005368   0.002695  -0.000112  -0.000699
    22  H   -0.001537   0.005883   0.000273  -0.002535   0.000511   0.000778
    23  F    0.001040   0.044995  -0.000034   0.000000   0.000122   0.006779
    24  F   -0.011088   0.053379   0.000287  -0.000018   0.000525   0.005468
              13         14         15         16         17         18
     1  C   -0.127047   0.547516   0.203623  -0.024474   0.035485  -0.021134
     2  C    0.383240   0.028809  -0.482659   0.000144   0.090373  -0.000695
     3  C    0.022843  -0.082405  -0.040207  -0.011419  -0.028737  -0.016275
     4  C   -0.004351   0.017964   0.306909  -0.000613  -0.083141   0.004296
     5  C    0.011296  -0.002057  -0.153149   0.005375  -0.032787   0.005170
     6  C   -0.014236   0.002663   0.037159  -0.000859   0.010458  -0.000098
     7  C   -0.017378   0.017668  -0.039831  -0.000676   0.016892  -0.000286
     8  C    0.034912  -0.045465  -0.336180   0.020572   0.016339   0.019998
     9  H    0.000486  -0.000081   0.016679  -0.009621   0.006958  -0.008656
    10  H    0.000330   0.000205  -0.000083  -0.000007   0.000151   0.000005
    11  H    0.001646  -0.000867   0.001292  -0.000075  -0.000357  -0.000081
    12  N    0.023701  -0.075499   0.282938  -0.034681  -0.058834  -0.035352
    13  H    0.449533  -0.009929  -0.003956   0.000255  -0.002226   0.000116
    14  B   -0.009929   3.518946   0.008444   0.001922  -0.017091   0.001608
    15  C   -0.003956   0.008444   5.491797   0.399160   0.399547   0.396903
    16  H    0.000255   0.001922   0.399160   0.538844  -0.027473  -0.061714
    17  H   -0.002226  -0.017091   0.399547  -0.027473   0.519854  -0.027962
    18  H    0.000116   0.001608   0.396903  -0.061714  -0.027962   0.544634
    19  C    0.002843  -0.002361  -0.030112   0.004870  -0.008124   0.004277
    20  H   -0.000005   0.000015  -0.000152  -0.000104  -0.000066   0.000067
    21  H   -0.000058  -0.000078   0.001202   0.000187   0.000066   0.000186
    22  H   -0.000006   0.000014  -0.000137   0.000069  -0.000065  -0.000112
    23  F   -0.000029   0.384049  -0.042261  -0.001961   0.028400  -0.001446
    24  F   -0.000717   0.350790   0.008297  -0.000630   0.007499  -0.000541
              19         20         21         22         23         24
     1  C   -0.017835   0.001314  -0.003510   0.001345  -0.071308   0.077886
     2  C   -0.372617  -0.002948  -0.003571  -0.002943   0.064879  -0.151182
     3  C   -0.145503  -0.027993   0.031832  -0.027342  -0.016711   0.050924
     4  C    0.515040  -0.038314   0.121734  -0.037161   0.001313  -0.001641
     5  C   -0.616784   0.025612  -0.137368   0.026329  -0.001538  -0.001535
     6  C   -1.014401   0.000476  -0.024867  -0.001504   0.000471  -0.000894
     7  C   -0.166570  -0.001183  -0.005532  -0.001537   0.001040  -0.011088
     8  C   -0.091075   0.005780  -0.001381   0.005883   0.044995   0.053379
     9  H   -0.048642   0.000213  -0.005368   0.000273  -0.000034   0.000287
    10  H   -0.036383  -0.002550   0.002695  -0.002535   0.000000  -0.000018
    11  H    0.014193   0.000506  -0.000112   0.000511   0.000122   0.000525
    12  N    0.007716   0.000785  -0.000699   0.000778   0.006779   0.005468
    13  H    0.002843  -0.000005  -0.000058  -0.000006  -0.000029  -0.000717
    14  B   -0.002361   0.000015  -0.000078   0.000014   0.384049   0.350790
    15  C   -0.030112  -0.000152   0.001202  -0.000137  -0.042261   0.008297
    16  H    0.004870  -0.000104   0.000187   0.000069  -0.001961  -0.000630
    17  H   -0.008124  -0.000066   0.000066  -0.000065   0.028400   0.007499
    18  H    0.004277   0.000067   0.000186  -0.000112  -0.001446  -0.000541
    19  C    7.334648   0.390518   0.370336   0.390027  -0.000052  -0.000091
    20  H    0.390518   0.539360  -0.017866  -0.058501  -0.000001   0.000001
    21  H    0.370336  -0.017866   0.514686  -0.017852   0.000007  -0.000007
    22  H    0.390027  -0.058501  -0.017852   0.539040  -0.000001   0.000001
    23  F   -0.000052  -0.000001   0.000007  -0.000001   8.726406  -0.072769
    24  F   -0.000091   0.000001  -0.000007   0.000001  -0.072769   8.710098
 Mulliken charges:
               1
     1  C   -0.540499
     2  C    0.336207
     3  C   -0.622594
     4  C   -0.719723
     5  C    0.616227
     6  C   -0.566533
     7  C   -0.309776
     8  C    0.270591
     9  H    0.181446
    10  H    0.202695
    11  H    0.217822
    12  N    0.213081
    13  H    0.248737
    14  B    0.355220
    15  C   -0.425224
    16  H    0.202908
    17  H    0.154839
    18  H    0.197090
    19  C   -0.483918
    20  H    0.185035
    21  H    0.175338
    22  H    0.185426
    23  F   -0.050352
    24  F   -0.024041
 Sum of Mulliken charges =  -0.00000
 Mulliken charges with hydrogens summed into heavy atoms:
               1
     1  C   -0.540499
     2  C    0.584944
     3  C   -0.622594
     4  C   -0.538278
     5  C    0.616227
     6  C   -0.363838
     7  C   -0.091954
     8  C    0.270591
    12  N    0.213081
    14  B    0.355220
    15  C    0.129613
    19  C    0.061880
    23  F   -0.050352
    24  F   -0.024041
 Electronic spatial extent (au):  <R**2>=           4352.6679
 Charge=              0.0000 electrons
 Dipole moment (field-independent basis, Debye):
    X=              0.2344    Y=              3.1377    Z=             -0.0152  Tot=              3.1465
 Quadrupole moment (field-independent basis, Debye-Ang):
   XX=            -75.3348   YY=            -80.8188   ZZ=            -82.9852
   XY=             -0.5169   XZ=             -0.5886   YZ=             -0.7927
 Traceless Quadrupole moment (field-independent basis, Debye-Ang):
   XX=              4.3781   YY=             -1.1059   ZZ=             -3.2722
   XY=             -0.5169   XZ=             -0.5886   YZ=             -0.7927
 Octapole moment (field-independent basis, Debye-Ang**2):
  XXX=            400.5091  YYY=            -25.5773  ZZZ=             33.6174  XYY=            128.4424
  XXY=            -16.2960  XXZ=             15.0944  XZZ=            162.7446  YZZ=            -34.5600
  YYZ=             12.7988  XYZ=             -1.1146
 Hexadecapole moment (field-independent basis, Debye-Ang**3):
 XXXX=          -2889.9120 YYYY=          -2571.2621 ZZZZ=           -119.1308 XXXY=            631.2004
 XXXZ=            -32.4482 YYYX=            588.5160 YYYZ=            -32.0478 ZZZX=            -17.7200
 ZZZY=            -19.2339 XXYY=           -864.4626 XXZZ=           -595.2108 YYZZ=           -442.9122
 XXYZ=             -6.1333 YYXZ=             -5.7040 ZZXY=            236.2351
 N-N= 8.331276810635D+02 E-N=-3.226616449318D+03  KE= 6.639877971350D+02
 Breneman (CHELPG) radii used.
 Generate Potential Derived Charges using the Breneman model, NDens= 1.
 Grid spacing= 0.300 Box extension= 2.800
 NStep X,Y,Z=   42     49     27   Total possible points=       55566
 Number of Points to Fit=   15252

 **********************************************************************

            Electrostatic Properties Using The SCF Density.

 **********************************************************************

       Atomic Center    1 is at  -1.118782 -1.233448 -0.191624
       Atomic Center    2 is at  -2.495780 -1.279978 -0.097905
       Atomic Center    3 is at  -1.836491  0.888936 -0.145263
       Atomic Center    4 is at  -1.937167  2.289243 -0.138552
       Atomic Center    5 is at  -3.193858  2.854248 -0.052875
       Atomic Center    6 is at  -4.340734  2.021533  0.025407
       Atomic Center    7 is at  -4.246560  0.650058  0.019399
       Atomic Center    8 is at  -2.973972  0.056829 -0.066982
       Atomic Center    9 is at  -1.053456  2.915348 -0.198416
       Atomic Center   10 is at  -5.316903  2.491398  0.091987
       Atomic Center   11 is at  -5.137097  0.034086  0.080278
       Atomic Center   12 is at  -0.723833  0.101772 -0.220941
       Atomic Center   13 is at  -3.083419 -2.184766 -0.057222
       Atomic Center   14 is at  -0.222605 -2.468779 -0.250237
       Atomic Center   15 is at   0.622523  0.632758 -0.307170
       Atomic Center   16 is at   0.853533  1.227305  0.580554
       Atomic Center   17 is at   1.335918 -0.182881 -0.377125
       Atomic Center   18 is at   0.723004  1.264024 -1.193662
       Atomic Center   19 is at  -3.372039  4.349748 -0.040697
       Atomic Center   20 is at  -3.873893  4.674603  0.875355
       Atomic Center   21 is at  -2.413124  4.867372 -0.103671
       Atomic Center   22 is at  -3.989610  4.675083 -0.882917
       Atomic Center   23 is at   1.109975 -2.434826 -0.342049
       Atomic Center   24 is at  -0.761537 -3.687555 -0.210074
   15252 points will be used for fitting atomic charges
 Fitting point charges to electrostatic potential
 Charges from ESP fit, RMS=   0.00385 RRMS=   0.31183:
 ESP charges:
               1
     1  C   -0.280058
     2  C   -0.303582
     3  C    0.176595
     4  C   -0.379740
     5  C    0.231165
     6  C   -0.242048
     7  C   -0.213854
     8  C    0.152168
     9  H    0.174678
    10  H    0.137100
    11  H    0.145610
    12  N   -0.029203
    13  H    0.176703
    14  B    0.841347
    15  C   -0.090984
    16  H    0.066199
    17  H    0.096304
    18  H    0.065902
    19  C   -0.258400
    20  H    0.075905
    21  H    0.078618
    22  H    0.076086
    23  F   -0.340674
    24  F   -0.355837
 Sum of ESP charges =   0.00000
 ESP charges with hydrogens summed into heavy atoms:
               1
     1  C   -0.280058
     2  C   -0.126879
     3  C    0.176595
     4  C   -0.205062
     5  C    0.231165
     6  C   -0.104948
     7  C   -0.068245
     8  C    0.152168
    12  N   -0.029203
    14  B    0.841347
    15  C    0.137422
    19  C   -0.027791
    23  F   -0.340674
    24  F   -0.355837
 Charge=   0.00000 Dipole=     0.1504     3.1302    -0.0125 Tot=     3.1339
 -----------------------------------------------------------------

              Electrostatic Properties (Atomic Units)

 -----------------------------------------------------------------
    Center     Electric         -------- Electric Field --------
               Potential          X             Y             Z
 -----------------------------------------------------------------
    1 Atom    -14.750269
    2 Atom    -14.773435
    3 Atom    -14.738172
    4 Atom    -14.769434
    5 Atom    -14.757719
    6 Atom    -14.779055
    7 Atom    -14.770000
    8 Atom    -14.775826
    9 Atom     -1.090022
   10 Atom     -1.107341
   11 Atom     -1.101673
   12 Atom    -18.332615
   13 Atom     -1.094185
   14 Atom    -11.349262
   15 Atom    -14.724104
   16 Atom     -1.090777
   17 Atom     -1.087256
   18 Atom     -1.090325
   19 Atom    -14.771859
   20 Atom     -1.109256
   21 Atom     -1.109977
   22 Atom     -1.109246
   23 Atom    -26.584917
   24 Atom    -26.593586
 -----------------------------------------------------------------
 Unable to Open any file for archive entry.
 1\1\GINC-IRENE5438\SP\RwB97XD\GenECP\C10H10B1F2N1\PENASFRA\10-Apr-2024
 \0\\# wb97xd/genecp scrf=(solvent=toluene,pcm) nosymm pop=(chelpg) scf
 cyc=300\\f_indole_chelpg\\0,1\C,0,-1.118782,-1.233448,-0.191624\C,0,-2
 .49578,-1.279978,-0.097905\C,0,-1.836491,0.888936,-0.145263\C,0,-1.937
 167,2.289243,-0.138552\C,0,-3.193858,2.854248,-0.052875\C,0,-4.340734,
 2.021533,0.025407\C,0,-4.24656,0.650058,0.019399\C,0,-2.973972,0.05682
 9,-0.066982\H,0,-1.053456,2.915348,-0.198416\H,0,-5.316903,2.491398,0.
 091987\H,0,-5.137097,0.034086,0.080278\N,0,-0.723833,0.101772,-0.22094
 1\H,0,-3.083419,-2.184766,-0.057222\B,0,-0.222605,-2.468779,-0.250237\
 C,0,0.622523,0.632758,-0.30717\H,0,0.853533,1.227305,0.580554\H,0,1.33
 5918,-0.182881,-0.377125\H,0,0.723004,1.264024,-1.193662\C,0,-3.372039
 ,4.349748,-0.040697\H,0,-3.873893,4.674603,0.875355\H,0,-2.413124,4.86
 7372,-0.103671\H,0,-3.98961,4.675083,-0.882917\F,0,1.109975,-2.434826,
 -0.342049\F,0,-0.761537,-3.687555,-0.210074\\Version=AS64L-G16RevC.02\
 HF=-666.488076\RMSD=7.711e-09\Dipole=0.092231,1.2344758,-0.0059845\Qua
 drupole=3.2550115,-0.8221916,-2.4328199,-0.3843093,-0.4375772,-0.58934
 08\PG=C01 [X(C10H10B1F2N1)]\\@
 The archive entry for this job was punched.


 MYSTERY IS THE WISDOM OF BLOCKHEADS... HORACE WALPOLE 
 Job cpu time:       0 days  0 hours 39 minutes 41.9 seconds.
 Elapsed time:       0 days  0 hours  0 minutes 25.3 seconds.
 File lengths (MBytes):  RWF=    147 Int=      0 D2E=      0 Chk=     10 Scr=      1
 Normal termination of Gaussian 16 at Wed Apr 10 15:42:38 2024.
