 Entering Gaussian System, Link 0=/ccc/products/gaussian-16-C.02/system/default/g16/g16
 Input=f_indenoPy_chelpg.gjf
 Output=f_indenoPy_chelpg.log
 Initial command:
 /ccc/products/gaussian-16-C.02/system/default/g16/l1.exe "/ccc/scratch/cont003/gen7343/penasfra/flp/b-n_flp/f_indenoPy/reac/Gau-805109.inp" -scrdir="/ccc/scratch/cont003/gen7343/penasfra/flp/b-n_flp/f_indenoPy/reac/"
 Entering Link 1 = /ccc/products/gaussian-16-C.02/system/default/g16/l1.exe PID=    805158.
  
 Copyright (c) 1988-2021, Gaussian, Inc.  All Rights Reserved.
  
 This is part of the Gaussian(R) 16 program.  It is based on
 the Gaussian(R) 09 system (copyright 2009, Gaussian, Inc.),
 the Gaussian(R) 03 system (copyright 2003, Gaussian, Inc.),
 the Gaussian(R) 98 system (copyright 1998, Gaussian, Inc.),
 the Gaussian(R) 94 system (copyright 1995, Gaussian, Inc.),
 the Gaussian 92(TM) system (copyright 1992, Gaussian, Inc.),
 the Gaussian 90(TM) system (copyright 1990, Gaussian, Inc.),
 the Gaussian 88(TM) system (copyright 1988, Gaussian, Inc.),
 the Gaussian 86(TM) system (copyright 1986, Carnegie Mellon
 University), and the Gaussian 82(TM) system (copyright 1983,
 Carnegie Mellon University). Gaussian is a federally registered
 trademark of Gaussian, Inc.
  
 This software contains proprietary and confidential information,
 including trade secrets, belonging to Gaussian, Inc.
  
 This software is provided under written license and may be
 used, copied, transmitted, or stored only in accord with that
 written license.
  
 The following legend is applicable only to US Government
 contracts under FAR:
  
                    RESTRICTED RIGHTS LEGEND
  
 Use, reproduction and disclosure by the US Government is
 subject to restrictions as set forth in subparagraphs (a)
 and (c) of the Commercial Computer Software - Restricted
 Rights clause in FAR 52.227-19.
  
 Gaussian, Inc.
 340 Quinnipiac St., Bldg. 40, Wallingford CT 06492
  
  
 ---------------------------------------------------------------
 Warning -- This program may not be used in any manner that
 competes with the business of Gaussian, Inc. or will provide
 assistance to any competitor of Gaussian, Inc.  The licensee
 of this program is prohibited from giving any competitor of
 Gaussian, Inc. access to this program.  By using this program,
 the user acknowledges that Gaussian, Inc. is engaged in the
 business of creating and licensing software in the field of
 computational chemistry and represents and warrants to the
 licensee that it is not a competitor of Gaussian, Inc. and that
 it will not use this program in any manner prohibited above.
 ---------------------------------------------------------------
  

 Cite this work as:
 Gaussian 16, Revision C.02,
 M. J. Frisch, G. W. Trucks, H. B. Schlegel, G. E. Scuseria, 
 M. A. Robb, J. R. Cheeseman, G. Scalmani, V. Barone, 
 G. A. Petersson, H. Nakatsuji, X. Li, M. Caricato, A. V. Marenich, 
 J. Bloino, B. G. Janesko, R. Gomperts, B. Mennucci, H. P. Hratchian, 
 J. V. Ortiz, A. F. Izmaylov, J. L. Sonnenberg, D. Williams-Young, 
 F. Ding, F. Lipparini, F. Egidi, J. Goings, B. Peng, A. Petrone, 
 T. Henderson, D. Ranasinghe, V. G. Zakrzewski, J. Gao, N. Rega, 
 G. Zheng, W. Liang, M. Hada, M. Ehara, K. Toyota, R. Fukuda, 
 J. Hasegawa, M. Ishida, T. Nakajima, Y. Honda, O. Kitao, H. Nakai, 
 T. Vreven, K. Throssell, J. A. Montgomery, Jr., J. E. Peralta, 
 F. Ogliaro, M. J. Bearpark, J. J. Heyd, E. N. Brothers, K. N. Kudin, 
 V. N. Staroverov, T. A. Keith, R. Kobayashi, J. Normand, 
 K. Raghavachari, A. P. Rendell, J. C. Burant, S. S. Iyengar, 
 J. Tomasi, M. Cossi, J. M. Millam, M. Klene, C. Adamo, R. Cammi, 
 J. W. Ochterski, R. L. Martin, K. Morokuma, O. Farkas, 
 J. B. Foresman, and D. J. Fox, Gaussian, Inc., Wallingford CT, 2019.
 
 ******************************************
 Gaussian 16:  AS64L-G16RevC.02  7-Dec-2021
                10-Apr-2024 
 ******************************************
 %nprocshared=128
 Will use up to  128 processors via shared memory.
 %mem=30GB
 %chk=f_indenoPy_chelpg.chk
 ----------------------------------------------------------------------
 # wb97xd/genecp scrf=(solvent=toluene,pcm) nosymm pop=(chelpg) scfcyc=
 300
 ----------------------------------------------------------------------
 1/38=1,172=1/1;
 2/12=2,15=1,17=6,18=5,40=1/2;
 3/5=7,11=2,16=1,17=8,25=1,30=1,70=2201,72=13,74=-58/1,2,3;
 4//1;
 5/5=2,7=300,38=5,53=13/2;
 6/7=2,8=2,9=2,10=2,15=8,20=3,28=1/1,2;
 99/5=1,9=1/99;
 -----------------
 f_indenoPy_chelpg
 -----------------
 Symbolic Z-matrix:
 Charge =  0 Multiplicity = 1
 C                     0.67358   0.72199  -0.4559 
 C                     1.81761   0.73479   0.34307 
 C                     2.19311   1.82291   1.12466 
 C                     1.35518   2.94017   1.07987 
 C                     0.20686   2.94429   0.28632 
 C                    -0.1456    1.83954  -0.48779 
 H                     1.58904   3.82321   1.66536 
 H                    -0.42283   3.82687   0.2734 
 H                    -1.04224   1.8627   -1.09789 
 C                     0.55619  -0.60747  -1.1743 
 H                     0.56373  -0.48235  -2.26151 
 H                    -0.37069  -1.128    -0.91407 
 C                     2.49612  -0.54809   0.19945 
 C                     1.7749   -1.35464  -0.68692 
 C                     4.0818   -2.1078    0.55375 
 C                     2.26612  -2.6191   -0.95127 
 C                     3.44802  -2.99572  -0.31126 
 H                     5.00096  -2.39453   1.05475 
 H                     1.76088  -3.30014  -1.62782 
 H                     3.87986  -3.97457  -0.47998 
 N                     3.61977  -0.8821    0.81964 
 B                     3.49675   1.73926   1.98728 
 F                     4.66788   2.17394   1.53241 
 F                     3.47252   1.35105   3.25857 
 
                          Input orientation:                          
 ---------------------------------------------------------------------
 Center     Atomic      Atomic             Coordinates (Angstroms)
 Number     Number       Type             X           Y           Z
 ---------------------------------------------------------------------
      1          6           0        0.673576    0.721989   -0.455895
      2          6           0        1.817612    0.734790    0.343071
      3          6           0        2.193108    1.822910    1.124663
      4          6           0        1.355176    2.940166    1.079870
      5          6           0        0.206856    2.944286    0.286321
      6          6           0       -0.145597    1.839544   -0.487786
      7          1           0        1.589036    3.823213    1.665355
      8          1           0       -0.422830    3.826868    0.273402
      9          1           0       -1.042242    1.862698   -1.097894
     10          6           0        0.556192   -0.607472   -1.174298
     11          1           0        0.563730   -0.482351   -2.261510
     12          1           0       -0.370685   -1.127995   -0.914068
     13          6           0        2.496120   -0.548090    0.199453
     14          6           0        1.774898   -1.354639   -0.686921
     15          6           0        4.081802   -2.107801    0.553748
     16          6           0        2.266121   -2.619103   -0.951266
     17          6           0        3.448020   -2.995720   -0.311255
     18          1           0        5.000963   -2.394526    1.054745
     19          1           0        1.760875   -3.300143   -1.627819
     20          1           0        3.879863   -3.974569   -0.479980
     21          7           0        3.619767   -0.882101    0.819639
     22          5           0        3.496752    1.739257    1.987282
     23          9           0        4.667877    2.173938    1.532409
     24          9           0        3.472515    1.351050    3.258571
 ---------------------------------------------------------------------
                    Distance matrix (angstroms):
                    1          2          3          4          5
     1  C    0.000000
     2  C    1.395467   0.000000
     3  C    2.453399   1.391362   0.000000
     4  C    2.782708   2.370739   1.397282   0.000000
     5  C    2.388999   2.734891   2.430123   1.395842   0.000000
     6  C    1.385998   2.401040   2.840741   2.433359   1.394245
     7  H    3.867216   3.367349   2.158347   1.085014   2.141184
     8  H    3.372574   3.819081   3.403472   2.144280   1.084261
     9  H    2.158104   3.395191   3.925409   3.413386   2.155488
    10  C    1.515701   2.386474   3.724443   4.278479   3.856219
    11  H    2.173188   3.136478   4.408545   4.848178   4.284932
    12  H    2.173211   3.136720   4.408775   4.848125   4.284619
    13  C    2.316085   1.458348   2.563098   3.774231   4.176717
    14  C    2.361920   2.329897   3.681515   4.662946   4.678324
    15  C    4.543467   3.640229   4.398136   5.761360   6.372622
    16  C    3.734232   3.622853   4.903702   5.988389   6.059991
    17  C    4.641101   4.123479   5.182264   6.445926   6.793078
    18  H    5.542651   4.520268   5.067120   6.461527   7.216429
    19  H    4.328183   4.490914   5.831694   6.814516   6.713553
    20  H    5.686696   5.206568   6.247462   7.524675   7.870753
    21  N    3.588890   2.467634   3.073350   4.450373   5.154961
    22  B    3.869660   2.555757   1.565438   2.617619   3.894712
    23  F    4.692116   3.407298   2.532580   3.430144   4.695410
    24  F    4.693297   3.408610   2.532409   3.428579   4.694380
                    6          7          8          9         10
     6  C    0.000000
     7  H    3.402927   0.000000
     8  H    2.146095   2.446457   0.000000
     9  H    1.084777   4.289847   2.474285   0.000000
    10  C    2.636606   5.362962   4.766308   2.943224   0.000000
    11  H    3.006732   5.916874   5.095925   3.071222   1.094414
    12  H    3.006438   5.916789   5.095436   3.070672   1.094424
    13  C    3.626536   4.698932   5.259847   4.473814   2.377822
    14  C    3.732393   5.690158   5.709662   4.296095   1.510311
    15  C    5.876838   6.528896   7.455910   6.689440   4.203220
    16  C    5.090258   6.986314   7.090896   5.572549   2.649577
    17  C    6.027024   7.338982   7.865940   6.662243   3.848538
    18  H    6.840602   7.118593   8.290583   7.699230   5.283766
    19  H    5.599169   7.849632   7.692691   5.898577   2.984530
    20  H    7.071655   8.405698   8.941094   7.660458   4.781862
    21  N    4.826456   5.194139   6.230197   5.739789   3.665610
    22  B    4.404852   2.843570   4.760108   5.489628   4.914226
    23  F    5.230921   3.495289   5.498416   6.294507   5.654066
    24  F    5.231114   3.492481   5.496783   6.294728   5.656065
                   11         12         13         14         15
    11  H    0.000000
    12  H    1.762268   0.000000
    13  C    3.129663   3.129663   0.000000
    14  C    2.169596   2.169445   1.398693   0.000000
    15  C    4.790052   4.789483   2.252246   2.725494   0.000000
    16  C    3.029948   3.029444   2.380367   1.382045   2.413130
    17  C    4.294141   4.293517   2.675412   2.373522   1.392232
    18  H    5.860290   5.859601   3.227242   3.810808   1.085388
    19  H    3.126447   3.125894   3.384273   2.161127   3.401120
    20  H    5.134800   5.134060   3.757277   3.367155   2.143407
    21  N    4.358055   4.357742   1.326189   2.428283   1.336606
    22  B    5.620533   5.621035   3.070758   4.437154   4.146946
    23  F    6.188192   6.501932   3.728637   5.074013   4.431089
    24  F    6.503359   6.190862   3.730721   5.076373   4.432939
                   16         17         18         19         20
    16  C    0.000000
    17  C    1.395829   0.000000
    18  H    3.399099   2.153839   0.000000
    19  H    1.084810   2.161590   4.302843   0.000000
    20  H    2.159528   1.083098   2.471595   2.502498   0.000000
    21  N    2.825887   2.403290   2.061651   3.910557   3.364523
    22  B    5.398594   5.263616   4.496714   6.440324   6.235540
    23  F    5.908495   5.622501   4.605429   6.957245   6.517270
    24  F    5.911026   5.624826   4.606771   6.959893   6.519579
                   21         22         23         24
    21  N    0.000000
    22  B    2.872288   0.000000
    23  F    3.308466   1.329433   0.000000
    24  F    3.310141   1.329461   2.255143   0.000000
 Symmetry turned off by external request.
 Stoichiometry    C12H8BF2N
 Framework group  C1[X(C12H8BF2N)]
 Deg. of freedom    66
 Full point group                 C1      NOp   1
 Rotational constants (GHZ):           0.7355384           0.5346711           0.3297629
 General basis read from cards:  (5D, 7F)
 ======================================================================================================
                                       Pseudopotential Parameters
 ======================================================================================================
  Center     Atomic      Valence      Angular      Power
  Number     Number     Electrons     Momentum     of R      Exponent        Coefficient   SO-Coeffient
 ======================================================================================================
    1          6
                                   No pseudopotential on this center.
    2          6
                                   No pseudopotential on this center.
    3          6
                                   No pseudopotential on this center.
    4          6
                                   No pseudopotential on this center.
    5          6
                                   No pseudopotential on this center.
    6          6
                                   No pseudopotential on this center.
    7          1
                                   No pseudopotential on this center.
    8          1
                                   No pseudopotential on this center.
    9          1
                                   No pseudopotential on this center.
   10          6
                                   No pseudopotential on this center.
   11          1
                                   No pseudopotential on this center.
   12          1
                                   No pseudopotential on this center.
   13          6
                                   No pseudopotential on this center.
   14          6
                                   No pseudopotential on this center.
   15          6
                                   No pseudopotential on this center.
   16          6
                                   No pseudopotential on this center.
   17          6
                                   No pseudopotential on this center.
   18          1
                                   No pseudopotential on this center.
   19          1
                                   No pseudopotential on this center.
   20          1
                                   No pseudopotential on this center.
   21          7
                                   No pseudopotential on this center.
   22          5
                                   No pseudopotential on this center.
   23          9
                                   No pseudopotential on this center.
   24          9
                                   No pseudopotential on this center.
 ======================================================================================================
   408 basis functions,   648 primitive gaussians,   424 cartesian basis functions
    55 alpha electrons       55 beta electrons
       nuclear repulsion energy      1004.9059889110 Hartrees.
 NAtoms=   24 NActive=   24 NUniq=   24 SFac= 1.00D+00 NAtFMM=   60 NAOKFM=F Big=F
 Integral buffers will be    131072 words long.
 Raffenetti 2 integral format.
 Two-electron integral symmetry is turned off.
 Nuclear repulsion after empirical dispersion term =     1004.8901382087 Hartrees.
 ------------------------------------------------------------------------------
 Polarizable Continuum Model (PCM)
 =================================
 Model                : PCM.
 Atomic radii         : UFF (Universal Force Field).
 Polarization charges : Total charges.
 Charge compensation  : None.
 Solution method      : On-the-fly selection.
 Cavity type          : Scaled VdW (van der Waals Surface) (Alpha=1.100).
 Cavity algorithm     : GePol (No added spheres)
                        Default sphere list used, NSphG=   24.
                        Lebedev-Laikov grids with approx.  5.0 points / Ang**2.
                        Smoothing algorithm: York/Karplus (Gamma=1.0000).
                        Polarization charges: spherical gaussians, with
                                              point-specific exponents (IZeta= 3).
                        Self-potential: point-specific (ISelfS= 7).
                        Self-field    : sphere-specific E.n sum rule (ISelfD= 2).
 Solvent              : Toluene, Eps=   2.374100 Eps(inf)=   2.238315
 ------------------------------------------------------------------------------
 One-electron integrals computed using PRISM.
   1 Symmetry operations used in ECPInt.
 ECPInt:  NShTT=    9316 NPrTT=   35292 LenC2=    8765 LenP2D=   23043.
 LDataN:  DoStor=T MaxTD1= 4 Len=   56
 Number of processors reduced to 114 by ecpmxn.
 NBasis=   408 RedAO= T EigKep=  1.85D-06  NBF=   408
 NBsUse=   403 1.00D-06 EigRej=  8.56D-07 NBFU=   403
 ExpMin= 3.15D-02 ExpMax= 1.14D+04 ExpMxC= 1.72D+03 IAcc=3 IRadAn=         5 AccDes= 0.00D+00
 Harris functional with IExCor= 4639 and IRadAn=       5 diagonalized for initial guess.
 HarFok:  IExCor= 4639 AccDes= 0.00D+00 IRadAn=         5 IDoV= 1 UseB2=F ITyADJ=14
 ICtDFT=  3500011 ScaDFX=  1.000000  1.000000  1.000000  1.000000
 FoFCou: FMM=F IPFlag=           0 FMFlag=      100000 FMFlg1=           0
         NFxFlg=           0 DoJE=T BraDBF=F KetDBF=T FulRan=T
         wScrn=  0.000000 ICntrl=       500 IOpCl=  0 I1Cent=   200000004 NGrid=           0
         NMat0=    1 NMatS0=      1 NMatT0=    0 NMatD0=    1 NMtDS0=    0 NMtDT0=    0
 Symmetry not used in FoFCou.
 Requested convergence on RMS density matrix=1.00D-08 within 300 cycles.
 Requested convergence on MAX density matrix=1.00D-06.
 Requested convergence on             energy=1.00D-06.
 No special actions if energy rises.
 Inv3:  Mode=1 IEnd=    12879552.
 Iteration    1 A*A^-1 deviation from unit magnitude is 4.88D-15 for   2067.
 Iteration    1 A*A^-1 deviation from orthogonality  is 1.89D-15 for   2042    852.
 Iteration    1 A^-1*A deviation from unit magnitude is 4.88D-15 for   2067.
 Iteration    1 A^-1*A deviation from orthogonality  is 1.54D-15 for   2008    989.
 Error on total polarization charges =  0.00869
 SCF Done:  E(RwB97XD) =  -741.477634364     A.U. after   15 cycles
            NFock= 15  Conv=0.65D-08     -V/T= 2.0037

 **********************************************************************

            Population analysis using the SCF Density.

 **********************************************************************

 Alpha  occ. eigenvalues --  -24.81650 -24.81648 -14.44454 -10.33239 -10.33050
 Alpha  occ. eigenvalues --  -10.31624 -10.31136 -10.30984 -10.30889 -10.30350
 Alpha  occ. eigenvalues --  -10.30310 -10.30305 -10.30173 -10.30000 -10.29377
 Alpha  occ. eigenvalues --   -6.96268  -1.33899  -1.30841  -1.06912  -0.99261
 Alpha  occ. eigenvalues --   -0.93998  -0.91019  -0.87403  -0.83742  -0.81129
 Alpha  occ. eigenvalues --   -0.75877  -0.71585  -0.70469  -0.69027  -0.66739
 Alpha  occ. eigenvalues --   -0.62926  -0.62242  -0.60548  -0.59289  -0.57946
 Alpha  occ. eigenvalues --   -0.57588  -0.55700  -0.54293  -0.53538  -0.52497
 Alpha  occ. eigenvalues --   -0.52289  -0.50896  -0.50699  -0.49538  -0.49506
 Alpha  occ. eigenvalues --   -0.49173  -0.46474  -0.45816  -0.44334  -0.41583
 Alpha  occ. eigenvalues --   -0.38739  -0.36793  -0.35949  -0.33912  -0.31002
 Alpha virt. eigenvalues --    0.00315   0.02844   0.03857   0.04426   0.04665
 Alpha virt. eigenvalues --    0.05152   0.05998   0.06277   0.07056   0.07714
 Alpha virt. eigenvalues --    0.08047   0.08435   0.08595   0.09015   0.09186
 Alpha virt. eigenvalues --    0.10738   0.11985   0.12096   0.12804   0.13621
 Alpha virt. eigenvalues --    0.14055   0.14951   0.15287   0.15372   0.15785
 Alpha virt. eigenvalues --    0.16307   0.16801   0.17004   0.17297   0.17332
 Alpha virt. eigenvalues --    0.17821   0.18092   0.18675   0.18699   0.19202
 Alpha virt. eigenvalues --    0.19247   0.20183   0.20731   0.21999   0.22571
 Alpha virt. eigenvalues --    0.23012   0.23125   0.23257   0.23773   0.24075
 Alpha virt. eigenvalues --    0.24077   0.24336   0.24805   0.25646   0.25974
 Alpha virt. eigenvalues --    0.26211   0.26859   0.27984   0.28480   0.28674
 Alpha virt. eigenvalues --    0.29471   0.29757   0.30190   0.30291   0.30342
 Alpha virt. eigenvalues --    0.31210   0.32296   0.32981   0.33428   0.33998
 Alpha virt. eigenvalues --    0.34635   0.35120   0.35480   0.35847   0.36270
 Alpha virt. eigenvalues --    0.36386   0.36749   0.37394   0.37638   0.38662
 Alpha virt. eigenvalues --    0.39048   0.39899   0.40345   0.40825   0.41478
 Alpha virt. eigenvalues --    0.41512   0.41951   0.43258   0.43730   0.44068
 Alpha virt. eigenvalues --    0.45672   0.46161   0.47837   0.47933   0.48612
 Alpha virt. eigenvalues --    0.49027   0.50126   0.51378   0.55107   0.56320
 Alpha virt. eigenvalues --    0.58047   0.58066   0.59188   0.59635   0.59793
 Alpha virt. eigenvalues --    0.61269   0.61482   0.62128   0.62240   0.63466
 Alpha virt. eigenvalues --    0.64650   0.64896   0.65566   0.66083   0.66638
 Alpha virt. eigenvalues --    0.67214   0.67846   0.68372   0.68580   0.70289
 Alpha virt. eigenvalues --    0.70519   0.72131   0.72497   0.73196   0.73351
 Alpha virt. eigenvalues --    0.74986   0.75970   0.76282   0.77074   0.77468
 Alpha virt. eigenvalues --    0.80637   0.82050   0.82411   0.83594   0.84159
 Alpha virt. eigenvalues --    0.84798   0.85265   0.85878   0.86698   0.87630
 Alpha virt. eigenvalues --    0.91094   0.91432   0.93191   0.94020   0.94258
 Alpha virt. eigenvalues --    0.95702   0.96847   0.97964   0.98212   0.98883
 Alpha virt. eigenvalues --    0.99986   1.00490   1.01606   1.02208   1.02715
 Alpha virt. eigenvalues --    1.04244   1.05778   1.08009   1.09398   1.09453
 Alpha virt. eigenvalues --    1.10431   1.11682   1.12686   1.12784   1.13640
 Alpha virt. eigenvalues --    1.15016   1.15969   1.18201   1.18662   1.19449
 Alpha virt. eigenvalues --    1.20008   1.23573   1.26741   1.27295   1.27559
 Alpha virt. eigenvalues --    1.29615   1.32332   1.34918   1.35420   1.38539
 Alpha virt. eigenvalues --    1.39995   1.42151   1.43004   1.43077   1.45843
 Alpha virt. eigenvalues --    1.47516   1.50790   1.52922   1.53156   1.55814
 Alpha virt. eigenvalues --    1.58521   1.58780   1.58964   1.60268   1.60988
 Alpha virt. eigenvalues --    1.61503   1.62446   1.64467   1.64825   1.65380
 Alpha virt. eigenvalues --    1.66564   1.69213   1.69509   1.69585   1.70261
 Alpha virt. eigenvalues --    1.72098   1.75446   1.76653   1.79258   1.80633
 Alpha virt. eigenvalues --    1.80850   1.81694   1.82570   1.83562   1.86146
 Alpha virt. eigenvalues --    1.86974   1.89422   1.89727   1.94322   1.95360
 Alpha virt. eigenvalues --    1.95919   1.98566   1.98874   1.99848   2.00102
 Alpha virt. eigenvalues --    2.03265   2.03569   2.04146   2.05027   2.05604
 Alpha virt. eigenvalues --    2.08301   2.09467   2.11634   2.13328   2.14693
 Alpha virt. eigenvalues --    2.15989   2.17164   2.17275   2.18752   2.23119
 Alpha virt. eigenvalues --    2.24686   2.27057   2.29657   2.30674   2.31959
 Alpha virt. eigenvalues --    2.33275   2.38810   2.39959   2.40041   2.44913
 Alpha virt. eigenvalues --    2.46737   2.51565   2.53003   2.55523   2.56111
 Alpha virt. eigenvalues --    2.57493   2.60542   2.61509   2.66293   2.66546
 Alpha virt. eigenvalues --    2.69673   2.69938   2.73448   2.75274   2.78928
 Alpha virt. eigenvalues --    2.80214   2.80508   2.81318   2.82077   2.82815
 Alpha virt. eigenvalues --    2.83468   2.85232   2.86026   2.87248   2.88221
 Alpha virt. eigenvalues --    2.88767   2.89709   2.91365   2.94690   2.95656
 Alpha virt. eigenvalues --    2.96533   2.96643   2.98371   3.03800   3.07715
 Alpha virt. eigenvalues --    3.08526   3.08780   3.11590   3.14577   3.16424
 Alpha virt. eigenvalues --    3.21976   3.29252   3.31686   3.35841   3.37770
 Alpha virt. eigenvalues --    3.41193   3.47860   3.50959   3.51744   3.54293
 Alpha virt. eigenvalues --    3.59108   3.63674   3.67400   3.71878   3.79456
 Alpha virt. eigenvalues --    3.82793   3.84939   3.86548   3.86908   3.86935
 Alpha virt. eigenvalues --    3.89456   3.93248   4.00965   4.05433   4.06990
 Alpha virt. eigenvalues --    4.09608   4.10986   4.11282   4.12813   4.14549
 Alpha virt. eigenvalues --    4.25097   4.27276   4.37818   4.40679   4.55078
 Alpha virt. eigenvalues --    4.56923   4.65894   4.65906   4.70363   4.94437
 Alpha virt. eigenvalues --    5.35973   6.41478   6.42185   6.48501   6.52487
 Alpha virt. eigenvalues --    6.59614   6.72364  14.84685  23.67186  23.88333
 Alpha virt. eigenvalues --   24.05157  24.06550  24.09268  24.09850  24.15601
 Alpha virt. eigenvalues --   24.20571  24.22453  24.24138  24.28196  24.32073
 Alpha virt. eigenvalues --   35.85234  66.93177  66.98731
          Condensed to atoms (all electrons):
               1          2          3          4          5          6
     1  C    8.842681  -0.297955   0.045890   2.404295  -0.546269  -0.814528
     2  C   -0.297955  12.697862   0.322965  -4.536237  -0.193087  -3.195341
     3  C    0.045890   0.322965  13.484478  -3.283434  -1.479221   2.640921
     4  C    2.404295  -4.536237  -3.283434  14.907119   0.888524  -1.114432
     5  C   -0.546269  -0.193087  -1.479221   0.888524   7.029337   0.755351
     6  C   -0.814528  -3.195341   2.640921  -1.114432   0.755351  11.700338
     7  H    0.048165  -0.014359  -0.175275   0.556326  -0.043651  -0.028215
     8  H    0.002833   0.040127  -0.011697  -0.026924   0.436518  -0.089746
     9  H   -0.041981   0.012500   0.054206  -0.038746  -0.070503   0.428485
    10  C   -0.003587   0.697060  -1.207446  -0.048215  -0.163123  -2.010504
    11  H   -0.017886  -0.010596  -0.003264   0.009707   0.009337   0.018102
    12  H   -0.017958  -0.010818  -0.003318   0.009635   0.009471   0.018414
    13  C   -1.551645   4.674694  -2.813423  -2.936330  -0.198342  -2.227969
    14  C   -1.746339  -1.818795  -1.478213  -0.082440  -0.098883  -0.544668
    15  C    0.044278  -0.038866   0.071206   0.055083  -0.013981   0.003760
    16  C   -0.034100  -1.434090  -0.288058  -0.382402   0.036769   0.574682
    17  C   -0.225956  -0.305300  -0.082626   0.030174   0.000892  -0.095050
    18  H    0.004118   0.041783   0.019714   0.005294  -0.000910  -0.000043
    19  H   -0.008824   0.004885  -0.006516  -0.008095  -0.001571   0.005819
    20  H   -0.004400  -0.021655  -0.004160  -0.000188   0.000217  -0.001109
    21  N   -0.020618  -0.399809  -0.106423   0.030036   0.015029   0.013834
    22  B   -0.083310   0.079671   0.703138  -0.398357   0.003253   0.072039
    23  F    0.010258  -0.040346   0.204923  -0.028284  -0.010371   0.013491
    24  F    0.010358  -0.040534   0.204653  -0.027662  -0.010245   0.013523
               7          8          9         10         11         12
     1  C    0.048165   0.002833  -0.041981  -0.003587  -0.017886  -0.017958
     2  C   -0.014359   0.040127   0.012500   0.697060  -0.010596  -0.010818
     3  C   -0.175275  -0.011697   0.054206  -1.207446  -0.003264  -0.003318
     4  C    0.556326  -0.026924  -0.038746  -0.048215   0.009707   0.009635
     5  C   -0.043651   0.436518  -0.070503  -0.163123   0.009337   0.009471
     6  C   -0.028215  -0.089746   0.428485  -2.010504   0.018102   0.018414
     7  H    0.475498  -0.010174   0.000194  -0.000550   0.000014   0.000013
     8  H   -0.010174   0.463155  -0.011750  -0.002857   0.000633   0.000639
     9  H    0.000194  -0.011750   0.459679   0.009753  -0.001716  -0.001738
    10  C   -0.000550  -0.002857   0.009753   7.668328   0.337941   0.337780
    11  H    0.000014   0.000633  -0.001716   0.337941   0.493194  -0.047989
    12  H    0.000013   0.000639  -0.001738   0.337780  -0.047989   0.493121
    13  C   -0.023337   0.001203  -0.001676   1.177388  -0.029400  -0.029694
    14  C    0.001643  -0.008647  -0.018445   0.580134   0.001831   0.001868
    15  C    0.000426   0.000416   0.001515  -0.158967   0.001099   0.001060
    16  C   -0.004635  -0.001230  -0.000950  -0.923527   0.020930   0.021365
    17  C    0.000410  -0.000327  -0.003483   0.132788   0.001323   0.001414
    18  H    0.000061   0.000012   0.000063  -0.008988  -0.000037  -0.000039
    19  H   -0.000083  -0.000060   0.000973   0.012402  -0.001199  -0.001191
    20  H    0.000011  -0.000003  -0.000095   0.006161   0.000233   0.000235
    21  N    0.000507   0.000504  -0.000163   0.024750   0.001533   0.001528
    22  B   -0.027328  -0.001938   0.003957   0.004054  -0.000971  -0.000966
    23  F    0.000132  -0.000001   0.000219  -0.002509  -0.000129  -0.000079
    24  F    0.000149  -0.000004   0.000219  -0.002534  -0.000079  -0.000128
              13         14         15         16         17         18
     1  C   -1.551645  -1.746339   0.044278  -0.034100  -0.225956   0.004118
     2  C    4.674694  -1.818795  -0.038866  -1.434090  -0.305300   0.041783
     3  C   -2.813423  -1.478213   0.071206  -0.288058  -0.082626   0.019714
     4  C   -2.936330  -0.082440   0.055083  -0.382402   0.030174   0.005294
     5  C   -0.198342  -0.098883  -0.013981   0.036769   0.000892  -0.000910
     6  C   -2.227969  -0.544668   0.003760   0.574682  -0.095050  -0.000043
     7  H   -0.023337   0.001643   0.000426  -0.004635   0.000410   0.000061
     8  H    0.001203  -0.008647   0.000416  -0.001230  -0.000327   0.000012
     9  H   -0.001676  -0.018445   0.001515  -0.000950  -0.003483   0.000063
    10  C    1.177388   0.580134  -0.158967  -0.923527   0.132788  -0.008988
    11  H   -0.029400   0.001831   0.001099   0.020930   0.001323  -0.000037
    12  H   -0.029694   0.001868   0.001060   0.021365   0.001414  -0.000039
    13  C   12.507959   0.765416  -0.796479  -1.821939   0.261762   0.041411
    14  C    0.765416   9.851906   0.066636   0.060105  -0.039651  -0.032854
    15  C   -0.796479   0.066636   6.419607  -0.104854  -0.362530   0.432430
    16  C   -1.821939   0.060105  -0.104854   8.872998   0.579839  -0.041462
    17  C    0.261762  -0.039651  -0.362530   0.579839   6.278251  -0.078364
    18  H    0.041411  -0.032854   0.432430  -0.041462  -0.078364   0.454849
    19  H    0.037480  -0.052618  -0.003953   0.370946  -0.029122   0.000708
    20  H   -0.013728   0.015854  -0.061037  -0.003422   0.405440  -0.003844
    21  N    0.116932   0.125241   0.269782   0.038179  -0.008542  -0.083710
    22  B   -0.026839  -0.001506  -0.011527   0.018678  -0.001863  -0.003743
    23  F   -0.090983  -0.011297  -0.005419   0.000288  -0.000014  -0.000423
    24  F   -0.091327  -0.011367  -0.005439   0.000270   0.000011  -0.000422
              19         20         21         22         23         24
     1  C   -0.008824  -0.004400  -0.020618  -0.083310   0.010258   0.010358
     2  C    0.004885  -0.021655  -0.399809   0.079671  -0.040346  -0.040534
     3  C   -0.006516  -0.004160  -0.106423   0.703138   0.204923   0.204653
     4  C   -0.008095  -0.000188   0.030036  -0.398357  -0.028284  -0.027662
     5  C   -0.001571   0.000217   0.015029   0.003253  -0.010371  -0.010245
     6  C    0.005819  -0.001109   0.013834   0.072039   0.013491   0.013523
     7  H   -0.000083   0.000011   0.000507  -0.027328   0.000132   0.000149
     8  H   -0.000060  -0.000003   0.000504  -0.001938  -0.000001  -0.000004
     9  H    0.000973  -0.000095  -0.000163   0.003957   0.000219   0.000219
    10  C    0.012402   0.006161   0.024750   0.004054  -0.002509  -0.002534
    11  H   -0.001199   0.000233   0.001533  -0.000971  -0.000129  -0.000079
    12  H   -0.001191   0.000235   0.001528  -0.000966  -0.000079  -0.000128
    13  C    0.037480  -0.013728   0.116932  -0.026839  -0.090983  -0.091327
    14  C   -0.052618   0.015854   0.125241  -0.001506  -0.011297  -0.011367
    15  C   -0.003953  -0.061037   0.269782  -0.011527  -0.005419  -0.005439
    16  C    0.370946  -0.003422   0.038179   0.018678   0.000288   0.000270
    17  C   -0.029122   0.405440  -0.008542  -0.001863  -0.000014   0.000011
    18  H    0.000708  -0.003844  -0.083710  -0.003743  -0.000423  -0.000422
    19  H    0.439845  -0.006847   0.000353   0.001080   0.000017   0.000017
    20  H   -0.006847   0.439372   0.012696  -0.000077   0.000022   0.000021
    21  N    0.000353   0.012696   6.880455   0.060681   0.004912   0.005018
    22  B    0.001080  -0.000077   0.060681   3.619292   0.330686   0.330538
    23  F    0.000017   0.000022   0.004912   0.330686   8.648402  -0.033476
    24  F    0.000017   0.000021   0.005018   0.330538  -0.033476   8.648623
 Mulliken charges:
               1
     1  C    0.002480
     2  C   -0.213760
     3  C   -0.809019
     4  C    0.015554
     5  C   -0.354541
     6  C   -0.137155
     7  H    0.244058
     8  H    0.219316
     9  H    0.219481
    10  C   -0.455733
    11  H    0.217390
    12  H    0.217377
    13  C   -0.931134
    14  C    0.475088
    15  C    0.195752
    16  C    0.445618
    17  C   -0.459474
    18  H    0.254395
    19  H    0.245555
    20  H    0.240305
    21  N    0.017294
    22  B    0.331358
    23  F    0.009980
    24  F    0.009817
 Sum of Mulliken charges =  -0.00000
 Mulliken charges with hydrogens summed into heavy atoms:
               1
     1  C    0.002480
     2  C   -0.213760
     3  C   -0.809019
     4  C    0.259611
     5  C   -0.135225
     6  C    0.082326
    10  C   -0.020966
    13  C   -0.931134
    14  C    0.475088
    15  C    0.450147
    16  C    0.691172
    17  C   -0.219169
    21  N    0.017294
    22  B    0.331358
    23  F    0.009980
    24  F    0.009817
 Electronic spatial extent (au):  <R**2>=           5396.5387
 Charge=              0.0000 electrons
 Dipole moment (field-independent basis, Debye):
    X=             -3.4172    Y=             -2.1161    Z=             -3.3803  Tot=              5.2518
 Quadrupole moment (field-independent basis, Debye-Ang):
   XX=           -103.1197   YY=            -76.0769   ZZ=            -94.9141
   XY=            -12.8584   XZ=             -6.5060   YZ=              3.4766
 Traceless Quadrupole moment (field-independent basis, Debye-Ang):
   XX=            -11.7495   YY=             15.2934   ZZ=             -3.5439
   XY=            -12.8584   XZ=             -6.5060   YZ=              3.4766
 Octapole moment (field-independent basis, Debye-Ang**2):
  XXX=           -652.1333  YYY=            -81.3870  ZZZ=           -133.8548  XYY=           -173.5014
  XXY=            -85.0163  XXZ=            -62.8581  XZZ=           -221.3690  YZZ=            -31.4905
  YYZ=            -31.7591  XYZ=             -0.0262
 Hexadecapole moment (field-independent basis, Debye-Ang**3):
 XXXX=          -4111.3370 YYYY=          -1950.3452 ZZZZ=           -974.0671 XXXY=           -222.5355
 XXXZ=           -585.1938 YYYX=            -33.9050 YYYZ=           -224.7151 ZZZX=           -564.2193
 ZZZY=           -337.6992 XXYY=           -916.8804 XXZZ=           -885.8819 YYZZ=           -490.6528
 XXYZ=           -160.7565 YYXZ=           -149.1943 ZZXY=             14.3878
 N-N= 1.004890138209D+03 E-N=-3.745134149781D+03  KE= 7.387548544916D+02
 Breneman (CHELPG) radii used.
 Generate Potential Derived Charges using the Breneman model, NDens= 1.
 Grid spacing= 0.300 Box extension= 2.800
 NStep X,Y,Z=   40     46     39   Total possible points=       71760
 Number of Points to Fit=   15909

 **********************************************************************

            Electrostatic Properties Using The SCF Density.

 **********************************************************************

       Atomic Center    1 is at   0.673576  0.721989 -0.455895
       Atomic Center    2 is at   1.817612  0.734790  0.343071
       Atomic Center    3 is at   2.193108  1.822910  1.124663
       Atomic Center    4 is at   1.355176  2.940166  1.079870
       Atomic Center    5 is at   0.206856  2.944286  0.286321
       Atomic Center    6 is at  -0.145597  1.839544 -0.487786
       Atomic Center    7 is at   1.589036  3.823213  1.665355
       Atomic Center    8 is at  -0.422830  3.826868  0.273402
       Atomic Center    9 is at  -1.042242  1.862698 -1.097894
       Atomic Center   10 is at   0.556192 -0.607472 -1.174298
       Atomic Center   11 is at   0.563730 -0.482351 -2.261510
       Atomic Center   12 is at  -0.370685 -1.127995 -0.914068
       Atomic Center   13 is at   2.496120 -0.548090  0.199453
       Atomic Center   14 is at   1.774898 -1.354639 -0.686921
       Atomic Center   15 is at   4.081802 -2.107801  0.553748
       Atomic Center   16 is at   2.266121 -2.619103 -0.951266
       Atomic Center   17 is at   3.448020 -2.995720 -0.311255
       Atomic Center   18 is at   5.000963 -2.394526  1.054745
       Atomic Center   19 is at   1.760875 -3.300143 -1.627819
       Atomic Center   20 is at   3.879863 -3.974569 -0.479980
       Atomic Center   21 is at   3.619767 -0.882101  0.819639
       Atomic Center   22 is at   3.496752  1.739257  1.987282
       Atomic Center   23 is at   4.667877  2.173938  1.532409
       Atomic Center   24 is at   3.472515  1.351050  3.258571
   15909 points will be used for fitting atomic charges
 Fitting point charges to electrostatic potential
 Charges from ESP fit, RMS=   0.00440 RRMS=   0.24586:
 ESP charges:
               1
     1  C    0.049649
     2  C   -0.014253
     3  C   -0.300283
     4  C   -0.070518
     5  C   -0.094376
     6  C   -0.152196
     7  H    0.096149
     8  H    0.102500
     9  H    0.119419
    10  C   -0.024008
    11  H    0.058229
    12  H    0.058083
    13  C    0.349029
    14  C   -0.114467
    15  C    0.283844
    16  C    0.025011
    17  C   -0.293322
    18  H    0.055785
    19  H    0.107154
    20  H    0.133716
    21  N   -0.551817
    22  B    0.963244
    23  F   -0.393793
    24  F   -0.392781
 Sum of ESP charges =  -0.00000
 ESP charges with hydrogens summed into heavy atoms:
               1
     1  C    0.049649
     2  C   -0.014253
     3  C   -0.300283
     4  C    0.025631
     5  C    0.008124
     6  C   -0.032776
    10  C    0.092304
    13  C    0.349029
    14  C   -0.114467
    15  C    0.339630
    16  C    0.132165
    17  C   -0.159606
    21  N   -0.551817
    22  B    0.963244
    23  F   -0.393793
    24  F   -0.392781
 Charge=  -0.00000 Dipole=    -3.5253    -2.1545    -3.4678 Tot=     5.3940
 -----------------------------------------------------------------

              Electrostatic Properties (Atomic Units)

 -----------------------------------------------------------------
    Center     Electric         -------- Electric Field --------
               Potential          X             Y             Z
 -----------------------------------------------------------------
    1 Atom    -14.752590
    2 Atom    -14.764535
    3 Atom    -14.774219
    4 Atom    -14.761127
    5 Atom    -14.761686
    6 Atom    -14.758024
    7 Atom     -1.097856
    8 Atom     -1.095191
    9 Atom     -1.087285
   10 Atom    -14.739390
   11 Atom     -1.080006
   12 Atom     -1.080003
   13 Atom    -14.734648
   14 Atom    -14.748523
   15 Atom    -14.733632
   16 Atom    -14.741173
   17 Atom    -14.755526
   18 Atom     -1.099430
   19 Atom     -1.073815
   20 Atom     -1.083669
   21 Atom    -18.398188
   22 Atom    -11.357030
   23 Atom    -26.605663
   24 Atom    -26.605677
 -----------------------------------------------------------------
 Unable to Open any file for archive entry.
 1\1\GINC-IRENE4407\SP\RwB97XD\GenECP\C12H8B1F2N1\PENASFRA\10-Apr-2024\
 0\\# wb97xd/genecp scrf=(solvent=toluene,pcm) nosymm pop=(chelpg) scfc
 yc=300\\f_indenoPy_chelpg\\0,1\C,0,0.673576,0.721989,-0.455895\C,0,1.8
 17612,0.73479,0.343071\C,0,2.193108,1.82291,1.124663\C,0,1.355176,2.94
 0166,1.07987\C,0,0.206856,2.944286,0.286321\C,0,-0.145597,1.839544,-0.
 487786\H,0,1.589036,3.823213,1.665355\H,0,-0.42283,3.826868,0.273402\H
 ,0,-1.042242,1.862698,-1.097894\C,0,0.556192,-0.607472,-1.174298\H,0,0
 .56373,-0.482351,-2.26151\H,0,-0.370685,-1.127995,-0.914068\C,0,2.4961
 2,-0.54809,0.199453\C,0,1.774898,-1.354639,-0.686921\C,0,4.081802,-2.1
 07801,0.553748\C,0,2.266121,-2.619103,-0.951266\C,0,3.44802,-2.99572,-
 0.311255\H,0,5.000963,-2.394526,1.054745\H,0,1.760875,-3.300143,-1.627
 819\H,0,3.879863,-3.974569,-0.47998\N,0,3.619767,-0.882101,0.819639\B,
 0,3.496752,1.739257,1.987282\F,0,4.667877,2.173938,1.532409\F,0,3.4725
 15,1.35105,3.258571\\Version=AS64L-G16RevC.02\HF=-741.4776344\RMSD=6.5
 45e-09\Dipole=-1.3444412,-0.8325548,-1.3299117\Quadrupole=-8.7354675,1
 1.370244,-2.6347765,-9.5599395,-4.8370382,2.5847837\PG=C01 [X(C12H8B1F
 2N1)]\\@
 The archive entry for this job was punched.


 IF AT FIRST YOU DON'T SUCCEED, TRY, TRY AGAIN.
 THEN GIVE UP;
 THERE'S NO USE BEING A DAMN FOOL ABOUT IT.

                                 -- W. C. FIELDS
 Job cpu time:       0 days  0 hours 45 minutes 13.6 seconds.
 Elapsed time:       0 days  0 hours  0 minutes 28.4 seconds.
 File lengths (MBytes):  RWF=    162 Int=      0 D2E=      0 Chk=     11 Scr=      1
 Normal termination of Gaussian 16 at Wed Apr 10 16:22:53 2024.
