 Entering Gaussian System, Link 0=/ccc/products/gaussian-16-C.02/system/default/g16/g16
 Input=f_metriazole_chelpg.gjf
 Output=f_metriazole_chelpg.log
 Initial command:
 /ccc/products/gaussian-16-C.02/system/default/g16/l1.exe "/ccc/scratch/cont003/gen7343/penasfra/flp/b-n_flp/f_metriazole/Reactant/Gau-82722.inp" -scrdir="/ccc/scratch/cont003/gen7343/penasfra/flp/b-n_flp/f_metriazole/Reactant/"
 Entering Link 1 = /ccc/products/gaussian-16-C.02/system/default/g16/l1.exe PID=     82771.
  
 Copyright (c) 1988-2021, Gaussian, Inc.  All Rights Reserved.
  
 This is part of the Gaussian(R) 16 program.  It is based on
 the Gaussian(R) 09 system (copyright 2009, Gaussian, Inc.),
 the Gaussian(R) 03 system (copyright 2003, Gaussian, Inc.),
 the Gaussian(R) 98 system (copyright 1998, Gaussian, Inc.),
 the Gaussian(R) 94 system (copyright 1995, Gaussian, Inc.),
 the Gaussian 92(TM) system (copyright 1992, Gaussian, Inc.),
 the Gaussian 90(TM) system (copyright 1990, Gaussian, Inc.),
 the Gaussian 88(TM) system (copyright 1988, Gaussian, Inc.),
 the Gaussian 86(TM) system (copyright 1986, Carnegie Mellon
 University), and the Gaussian 82(TM) system (copyright 1983,
 Carnegie Mellon University). Gaussian is a federally registered
 trademark of Gaussian, Inc.
  
 This software contains proprietary and confidential information,
 including trade secrets, belonging to Gaussian, Inc.
  
 This software is provided under written license and may be
 used, copied, transmitted, or stored only in accord with that
 written license.
  
 The following legend is applicable only to US Government
 contracts under FAR:
  
                    RESTRICTED RIGHTS LEGEND
  
 Use, reproduction and disclosure by the US Government is
 subject to restrictions as set forth in subparagraphs (a)
 and (c) of the Commercial Computer Software - Restricted
 Rights clause in FAR 52.227-19.
  
 Gaussian, Inc.
 340 Quinnipiac St., Bldg. 40, Wallingford CT 06492
  
  
 ---------------------------------------------------------------
 Warning -- This program may not be used in any manner that
 competes with the business of Gaussian, Inc. or will provide
 assistance to any competitor of Gaussian, Inc.  The licensee
 of this program is prohibited from giving any competitor of
 Gaussian, Inc. access to this program.  By using this program,
 the user acknowledges that Gaussian, Inc. is engaged in the
 business of creating and licensing software in the field of
 computational chemistry and represents and warrants to the
 licensee that it is not a competitor of Gaussian, Inc. and that
 it will not use this program in any manner prohibited above.
 ---------------------------------------------------------------
  

 Cite this work as:
 Gaussian 16, Revision C.02,
 M. J. Frisch, G. W. Trucks, H. B. Schlegel, G. E. Scuseria, 
 M. A. Robb, J. R. Cheeseman, G. Scalmani, V. Barone, 
 G. A. Petersson, H. Nakatsuji, X. Li, M. Caricato, A. V. Marenich, 
 J. Bloino, B. G. Janesko, R. Gomperts, B. Mennucci, H. P. Hratchian, 
 J. V. Ortiz, A. F. Izmaylov, J. L. Sonnenberg, D. Williams-Young, 
 F. Ding, F. Lipparini, F. Egidi, J. Goings, B. Peng, A. Petrone, 
 T. Henderson, D. Ranasinghe, V. G. Zakrzewski, J. Gao, N. Rega, 
 G. Zheng, W. Liang, M. Hada, M. Ehara, K. Toyota, R. Fukuda, 
 J. Hasegawa, M. Ishida, T. Nakajima, Y. Honda, O. Kitao, H. Nakai, 
 T. Vreven, K. Throssell, J. A. Montgomery, Jr., J. E. Peralta, 
 F. Ogliaro, M. J. Bearpark, J. J. Heyd, E. N. Brothers, K. N. Kudin, 
 V. N. Staroverov, T. A. Keith, R. Kobayashi, J. Normand, 
 K. Raghavachari, A. P. Rendell, J. C. Burant, S. S. Iyengar, 
 J. Tomasi, M. Cossi, J. M. Millam, M. Klene, C. Adamo, R. Cammi, 
 J. W. Ochterski, R. L. Martin, K. Morokuma, O. Farkas, 
 J. B. Foresman, and D. J. Fox, Gaussian, Inc., Wallingford CT, 2019.
 
 ******************************************
 Gaussian 16:  AS64L-G16RevC.02  7-Dec-2021
                 9-Apr-2024 
 ******************************************
 %nprocshared=128
 Will use up to  128 processors via shared memory.
 %mem=30GB
 %chk=f_metriazole_chelpg.chk
 ----------------------------------------------------------------------
 # wb97xd/genecp scrf=(solvent=toluene,pcm) nosymm pop=(chelpg) scfcyc=
 300
 ----------------------------------------------------------------------
 1/38=1,172=1/1;
 2/12=2,15=1,17=6,18=5,40=1/2;
 3/5=7,11=2,16=1,17=8,25=1,30=1,70=2201,72=13,74=-58/1,2,3;
 4//1;
 5/5=2,7=300,38=5,53=13/2;
 6/7=2,8=2,9=2,10=2,15=8,20=3,28=1/1,2;
 99/5=1,9=1/99;
 -------------------
 f_metriazole_chelpg
 -------------------
 Symbolic Z-matrix:
 Charge =  0 Multiplicity = 1
 C                     2.65741   1.66335   1.14881 
 H                     2.71357   2.19141   2.08647 
 C                     3.14075   0.43463   0.74483 
 N                     2.03318   2.16033   0.07329 
 N                     2.11342   1.29786  -0.95938 
 N                     2.77267   0.26661  -0.56477 
 B                     3.93993  -0.60027   1.54573 
 F                     4.26256  -0.36749   2.81781 
 F                     4.3416   -1.75079   1.02893 
 C                     1.33718   3.42534  -0.07922 
 H                     0.95745   3.46716  -1.09765 
 H                     0.50657   3.48108   0.62409 
 H                     2.02566   4.25305   0.0895 
 
                          Input orientation:                          
 ---------------------------------------------------------------------
 Center     Atomic      Atomic             Coordinates (Angstroms)
 Number     Number       Type             X           Y           Z
 ---------------------------------------------------------------------
      1          6           0        2.657406    1.663348    1.148806
      2          1           0        2.713568    2.191409    2.086473
      3          6           0        3.140753    0.434630    0.744832
      4          7           0        2.033184    2.160329    0.073285
      5          7           0        2.113422    1.297864   -0.959376
      6          7           0        2.772669    0.266607   -0.564771
      7          5           0        3.939925   -0.600271    1.545730
      8          9           0        4.262562   -0.367487    2.817810
      9          9           0        4.341598   -1.750789    1.028935
     10          6           0        1.337175    3.425338   -0.079220
     11          1           0        0.957454    3.467163   -1.097654
     12          1           0        0.506569    3.481083    0.624086
     13          1           0        2.025656    4.253047    0.089499
 ---------------------------------------------------------------------
                    Distance matrix (angstroms):
                    1          2          3          4          5
     1  C    0.000000
     2  H    1.077600   0.000000
     3  C    1.380785   2.251391   0.000000
     4  N    1.339175   2.125280   2.157712   0.000000
     5  N    2.207698   3.230448   2.169080   1.347840   0.000000
     6  N    2.213711   3.276805   1.370685   2.130760   1.286006
     7  B    2.631801   3.096745   1.533341   3.663969   3.635187
     8  F    3.079999   3.079316   2.489796   4.346539   4.653959
     9  F    3.808832   4.394291   2.509741   4.641001   4.267603
    10  C    2.521045   2.847326   3.588355   1.451873   2.429687
    11  H    3.345171   3.853589   4.166270   2.058181   2.461959
    12  H    2.864540   2.944941   4.029191   2.092445   3.139391
    13  H    2.868411   2.951522   4.031527   2.092794   3.137029
                    6          7          8          9         10
     6  N    0.000000
     7  B    2.562846   0.000000
     8  F    3.750161   1.332843   0.000000
     9  F    3.011864   1.323673   2.262707   0.000000
    10  C    3.503425   5.061650   5.597874   6.086613   0.000000
    11  H    3.717866   5.694439   6.399933   6.572810   1.087725
    12  H    4.108704   5.412468   5.807874   6.499526   1.089795
    13  H    4.108260   5.416616   5.813498   6.503243   1.089759
                   11         12         13
    11  H    0.000000
    12  H    1.779854   0.000000
    13  H    1.779888   1.785871   0.000000
 Symmetry turned off by external request.
 Stoichiometry    C3H4BF2N3
 Framework group  C1[X(C3H4BF2N3)]
 Deg. of freedom    33
 Full point group                 C1      NOp   1
 Rotational constants (GHZ):           4.3751426           0.9510041           0.7850999
 General basis read from cards:  (5D, 7F)
 ======================================================================================================
                                       Pseudopotential Parameters
 ======================================================================================================
  Center     Atomic      Valence      Angular      Power
  Number     Number     Electrons     Momentum     of R      Exponent        Coefficient   SO-Coeffient
 ======================================================================================================
    1          6
                                   No pseudopotential on this center.
    2          1
                                   No pseudopotential on this center.
    3          6
                                   No pseudopotential on this center.
    4          7
                                   No pseudopotential on this center.
    5          7
                                   No pseudopotential on this center.
    6          7
                                   No pseudopotential on this center.
    7          5
                                   No pseudopotential on this center.
    8          9
                                   No pseudopotential on this center.
    9          9
                                   No pseudopotential on this center.
   10          6
                                   No pseudopotential on this center.
   11          1
                                   No pseudopotential on this center.
   12          1
                                   No pseudopotential on this center.
   13          1
                                   No pseudopotential on this center.
 ======================================================================================================
   226 basis functions,   360 primitive gaussians,   235 cartesian basis functions
    33 alpha electrons       33 beta electrons
       nuclear repulsion energy       420.0579318600 Hartrees.
 NAtoms=   13 NActive=   13 NUniq=   13 SFac= 1.00D+00 NAtFMM=   60 NAOKFM=F Big=F
 Integral buffers will be    131072 words long.
 Raffenetti 2 integral format.
 Two-electron integral symmetry is turned off.
 Nuclear repulsion after empirical dispersion term =      420.0527289364 Hartrees.
 ------------------------------------------------------------------------------
 Polarizable Continuum Model (PCM)
 =================================
 Model                : PCM.
 Atomic radii         : UFF (Universal Force Field).
 Polarization charges : Total charges.
 Charge compensation  : None.
 Solution method      : On-the-fly selection.
 Cavity type          : Scaled VdW (van der Waals Surface) (Alpha=1.100).
 Cavity algorithm     : GePol (No added spheres)
                        Default sphere list used, NSphG=   13.
                        Lebedev-Laikov grids with approx.  5.0 points / Ang**2.
                        Smoothing algorithm: York/Karplus (Gamma=1.0000).
                        Polarization charges: spherical gaussians, with
                                              point-specific exponents (IZeta= 3).
                        Self-potential: point-specific (ISelfS= 7).
                        Self-field    : sphere-specific E.n sum rule (ISelfD= 2).
 Solvent              : Toluene, Eps=   2.374100 Eps(inf)=   2.238315
 ------------------------------------------------------------------------------
 Spheres list:
 ISph  on   Nord     Re0    Alpha      Xe            Ye            Ze
    1   C      1    1.9255  1.100      2.657406      1.663348      1.148806
    2   H      2    1.4430  1.100      2.713568      2.191409      2.086473
    3   C      3    1.9255  1.100      3.140753      0.434630      0.744832
    4   N      4    1.8300  1.100      2.033184      2.160329      0.073285
    5   N      5    1.8300  1.100      2.113422      1.297864     -0.959376
    6   N      6    1.8300  1.100      2.772669      0.266607     -0.564771
    7   B      7    2.0415  1.100      3.939925     -0.600271      1.545730
    8   F      8    1.6820  1.100      4.262562     -0.367487      2.817810
    9   F      9    1.6820  1.100      4.341598     -1.750789      1.028935
   10   C     10    1.9255  1.100      1.337175      3.425338     -0.079220
   11   H     11    1.4430  1.100      0.957454      3.467163     -1.097654
   12   H     12    1.4430  1.100      0.506569      3.481083      0.624086
   13   H     13    1.4430  1.100      2.025656      4.253047      0.089499
 ------------------------------------------------------------------------------
 One-electron integrals computed using PRISM.
   1 Symmetry operations used in ECPInt.
 ECPInt:  NShTT=    2775 NPrTT=   10759 LenC2=    2664 LenP2D=    7658.
 LDataN:  DoStor=T MaxTD1= 4 Len=   56
 NBasis=   226 RedAO= T EigKep=  1.20D-05  NBF=   226
 NBsUse=   226 1.00D-06 EigRej= -1.00D+00 NBFU=   226
 ExpMin= 3.15D-02 ExpMax= 1.14D+04 ExpMxC= 1.72D+03 IAcc=3 IRadAn=         5 AccDes= 0.00D+00
 Harris functional with IExCor= 4639 and IRadAn=       5 diagonalized for initial guess.
 HarFok:  IExCor= 4639 AccDes= 0.00D+00 IRadAn=         5 IDoV= 1 UseB2=F ITyADJ=14
 ICtDFT=  3500011 ScaDFX=  1.000000  1.000000  1.000000  1.000000
 FoFCou: FMM=F IPFlag=           0 FMFlag=      100000 FMFlg1=           0
         NFxFlg=           0 DoJE=T BraDBF=F KetDBF=T FulRan=T
         wScrn=  0.000000 ICntrl=       500 IOpCl=  0 I1Cent=   200000004 NGrid=           0
         NMat0=    1 NMatS0=      1 NMatT0=    0 NMatD0=    1 NMtDS0=    0 NMtDT0=    0
 Symmetry not used in FoFCou.
 Requested convergence on RMS density matrix=1.00D-08 within 300 cycles.
 Requested convergence on MAX density matrix=1.00D-06.
 Requested convergence on             energy=1.00D-06.
 No special actions if energy rises.
 Inv3:  Mode=1 IEnd=     5435148.
 Iteration    1 A*A^-1 deviation from unit magnitude is 3.44D-15 for   1330.
 Iteration    1 A*A^-1 deviation from orthogonality  is 1.45D-15 for   1100      4.
 Iteration    1 A^-1*A deviation from unit magnitude is 3.44D-15 for   1330.
 Iteration    1 A^-1*A deviation from orthogonality  is 1.17D-14 for   1121   1077.
 Error on total polarization charges =  0.00683
 SCF Done:  E(RwB97XD) =  -505.600357043     A.U. after   15 cycles
            NFock= 15  Conv=0.39D-08     -V/T= 2.0032

 **********************************************************************

            Population analysis using the SCF Density.

 **********************************************************************

 Alpha  occ. eigenvalues --  -24.82811 -24.82589 -14.54734 -14.50877 -14.47438
 Alpha  occ. eigenvalues --  -10.35408 -10.34550 -10.31467  -6.96800  -1.34928
 Alpha  occ. eigenvalues --   -1.31976  -1.23015  -1.04367  -0.92863  -0.85459
 Alpha  occ. eigenvalues --   -0.75402  -0.70969  -0.68150  -0.64884  -0.63014
 Alpha  occ. eigenvalues --   -0.60754  -0.59461  -0.58754  -0.55501  -0.53359
 Alpha  occ. eigenvalues --   -0.52446  -0.52377  -0.51724  -0.49368  -0.43488
 Alpha  occ. eigenvalues --   -0.39473  -0.37474  -0.36745
 Alpha virt. eigenvalues --    0.02620   0.03605   0.04526   0.05586   0.06472
 Alpha virt. eigenvalues --    0.07492   0.08246   0.08702   0.08794   0.09909
 Alpha virt. eigenvalues --    0.11462   0.14007   0.14500   0.14699   0.15232
 Alpha virt. eigenvalues --    0.16481   0.16990   0.17861   0.18300   0.18947
 Alpha virt. eigenvalues --    0.19232   0.19443   0.20401   0.21579   0.23319
 Alpha virt. eigenvalues --    0.23657   0.24301   0.25566   0.26513   0.28048
 Alpha virt. eigenvalues --    0.28843   0.29110   0.30352   0.30734   0.31794
 Alpha virt. eigenvalues --    0.32643   0.33089   0.33757   0.35102   0.36109
 Alpha virt. eigenvalues --    0.36593   0.37702   0.38022   0.38473   0.39302
 Alpha virt. eigenvalues --    0.40093   0.40650   0.43912   0.45528   0.46543
 Alpha virt. eigenvalues --    0.47387   0.49113   0.51449   0.52238   0.53583
 Alpha virt. eigenvalues --    0.54773   0.56369   0.58772   0.60450   0.63523
 Alpha virt. eigenvalues --    0.64591   0.66117   0.69151   0.69269   0.69399
 Alpha virt. eigenvalues --    0.69941   0.71552   0.73517   0.77097   0.82910
 Alpha virt. eigenvalues --    0.83808   0.87859   0.88111   0.89608   0.90401
 Alpha virt. eigenvalues --    0.92281   0.93636   0.94562   0.95703   0.99845
 Alpha virt. eigenvalues --    1.01342   1.02279   1.04034   1.05420   1.09912
 Alpha virt. eigenvalues --    1.11540   1.15033   1.22072   1.23745   1.31796
 Alpha virt. eigenvalues --    1.32396   1.34070   1.34114   1.36853   1.39098
 Alpha virt. eigenvalues --    1.41066   1.43115   1.44355   1.46115   1.49194
 Alpha virt. eigenvalues --    1.50144   1.51727   1.55139   1.56117   1.60954
 Alpha virt. eigenvalues --    1.62407   1.64631   1.65445   1.67309   1.67487
 Alpha virt. eigenvalues --    1.77187   1.78471   1.82492   1.83094   1.83789
 Alpha virt. eigenvalues --    1.92473   1.95094   1.97026   2.03291   2.04773
 Alpha virt. eigenvalues --    2.12470   2.13589   2.14041   2.18145   2.21646
 Alpha virt. eigenvalues --    2.23215   2.23944   2.35797   2.36141   2.39940
 Alpha virt. eigenvalues --    2.45499   2.49470   2.49929   2.55890   2.58710
 Alpha virt. eigenvalues --    2.60522   2.61665   2.66249   2.70083   2.73786
 Alpha virt. eigenvalues --    2.75107   2.80895   2.82475   2.83280   2.86177
 Alpha virt. eigenvalues --    2.89562   3.02604   3.04529   3.06936   3.16860
 Alpha virt. eigenvalues --    3.22378   3.25986   3.48756   3.59923   3.71119
 Alpha virt. eigenvalues --    3.75060   3.77286   3.83826   3.86004   3.86995
 Alpha virt. eigenvalues --    3.87659   3.91053   3.92865   4.02160   4.04167
 Alpha virt. eigenvalues --    4.05741   4.07309   4.08226   4.12469   4.12918
 Alpha virt. eigenvalues --    4.26567   4.37752   4.58493   4.66113   4.73233
 Alpha virt. eigenvalues --    4.92814   5.08781   5.73819   6.37668   6.39427
 Alpha virt. eigenvalues --    6.40876   6.49967   6.52389   6.74611  14.74589
 Alpha virt. eigenvalues --   23.91045  24.04594  24.23504  35.53042  35.62573
 Alpha virt. eigenvalues --   35.77364  66.92105  66.93516
          Condensed to atoms (all electrons):
               1          2          3          4          5          6
     1  C    7.253733   0.426872  -0.804910  -0.146634   0.183325  -0.327734
     2  H    0.426872   0.431156  -0.037457  -0.083586   0.041809  -0.009993
     3  C   -0.804910  -0.037457   6.429277  -0.060811  -0.088759   0.523614
     4  N   -0.146634  -0.083586  -0.060811   7.084982  -0.136859   0.096082
     5  N    0.183325   0.041809  -0.088759  -0.136859   6.969064   0.113095
     6  N   -0.327734  -0.009993   0.523614   0.096082   0.113095   6.802383
     7  B   -0.225594  -0.018724   0.603426   0.043627  -0.020094  -0.082463
     8  F   -0.011070   0.007100  -0.019517  -0.003199   0.008843  -0.001074
     9  F    0.062820  -0.001743  -0.050429   0.001854  -0.001142   0.017348
    10  C   -0.160804   0.003563   0.017994   0.106290   0.009853   0.014995
    11  H    0.025552   0.001877  -0.016865  -0.102388   0.072167  -0.003083
    12  H   -0.007578  -0.008548   0.007804  -0.013235  -0.030441   0.003997
    13  H   -0.008405  -0.008375   0.008015  -0.012852  -0.030275   0.003794
               7          8          9         10         11         12
     1  C   -0.225594  -0.011070   0.062820  -0.160804   0.025552  -0.007578
     2  H   -0.018724   0.007100  -0.001743   0.003563   0.001877  -0.008548
     3  C    0.603426  -0.019517  -0.050429   0.017994  -0.016865   0.007804
     4  N    0.043627  -0.003199   0.001854   0.106290  -0.102388  -0.013235
     5  N   -0.020094   0.008843  -0.001142   0.009853   0.072167  -0.030441
     6  N   -0.082463  -0.001074   0.017348   0.014995  -0.003083   0.003997
     7  B    3.562077   0.408396   0.353246   0.001624  -0.002078   0.001245
     8  F    0.408396   8.710512  -0.058430   0.001646  -0.000028  -0.000130
     9  F    0.353246  -0.058430   8.692288   0.000259   0.000191   0.000073
    10  C    0.001624   0.001646   0.000259   5.215570   0.400473   0.395743
    11  H   -0.002078  -0.000028   0.000191   0.400473   0.455307  -0.020611
    12  H    0.001245  -0.000130   0.000073   0.395743  -0.020611   0.519193
    13  H    0.001239  -0.000129   0.000070   0.395636  -0.020494  -0.051190
              13
     1  C   -0.008405
     2  H   -0.008375
     3  C    0.008015
     4  N   -0.012852
     5  N   -0.030275
     6  N    0.003794
     7  B    0.001239
     8  F   -0.000129
     9  F    0.000070
    10  C    0.395636
    11  H   -0.020494
    12  H   -0.051190
    13  H    0.518794
 Mulliken charges:
               1
     1  C   -0.259572
     2  H    0.256047
     3  C   -0.511382
     4  N    0.226728
     5  N   -0.090588
     6  N   -0.150962
     7  B    0.374069
     8  F   -0.042921
     9  F   -0.016404
    10  C   -0.402843
    11  H    0.209980
    12  H    0.203677
    13  H    0.204172
 Sum of Mulliken charges =  -0.00000
 Mulliken charges with hydrogens summed into heavy atoms:
               1
     1  C   -0.003525
     3  C   -0.511382
     4  N    0.226728
     5  N   -0.090588
     6  N   -0.150962
     7  B    0.374069
     8  F   -0.042921
     9  F   -0.016404
    10  C    0.214986
 Electronic spatial extent (au):  <R**2>=           3608.4391
 Charge=             -0.0000 electrons
 Dipole moment (field-independent basis, Debye):
    X=             -2.1003    Y=              5.7766    Z=              2.4015  Tot=              6.5991
 Quadrupole moment (field-independent basis, Debye-Ang):
   XX=            -60.3635   YY=            -34.7083   ZZ=            -54.4350
   XY=             12.3606   XZ=              3.2024   YZ=              4.4645
 Traceless Quadrupole moment (field-independent basis, Debye-Ang):
   XX=            -10.5279   YY=             15.1273   ZZ=             -4.5994
   XY=             12.3606   XZ=              3.2024   YZ=              4.4645
 Octapole moment (field-independent basis, Debye-Ang**2):
  XXX=           -472.7150  YYY=            -64.7568  ZZZ=            -94.4782  XYY=           -126.3218
  XXY=             -6.2272  XXZ=            -32.9477  XZZ=           -164.0092  YZZ=            -36.9822
  YYZ=            -22.7392  XYZ=             13.6832
 Hexadecapole moment (field-independent basis, Debye-Ang**3):
 XXXX=          -2987.6643 YYYY=           -784.1411 ZZZZ=           -566.1574 XXXY=            -20.0995
 XXXZ=           -433.0319 YYYX=            -35.1629 YYYZ=             56.9360 ZZZX=           -424.0811
 ZZZY=             63.3727 XXYY=           -631.8914 XXZZ=           -652.0373 YYZZ=           -233.7363
 XXYZ=             59.8038 YYXZ=           -109.6639 ZZXY=            -30.8698
 N-N= 4.200527289364D+02 E-N=-2.029464774211D+03  KE= 5.040074991682D+02
 Breneman (CHELPG) radii used.
 Generate Potential Derived Charges using the Breneman model, NDens= 1.
 Grid spacing= 0.300 Box extension= 2.800
 NStep X,Y,Z=   33     40     32   Total possible points=       42240
 Number of Points to Fit=   10036

 **********************************************************************

            Electrostatic Properties Using The SCF Density.

 **********************************************************************

       Atomic Center    1 is at   2.657406  1.663348  1.148806
       Atomic Center    2 is at   2.713568  2.191409  2.086473
       Atomic Center    3 is at   3.140753  0.434630  0.744832
       Atomic Center    4 is at   2.033184  2.160329  0.073285
       Atomic Center    5 is at   2.113422  1.297864 -0.959376
       Atomic Center    6 is at   2.772669  0.266607 -0.564771
       Atomic Center    7 is at   3.939925 -0.600271  1.545730
       Atomic Center    8 is at   4.262562 -0.367487  2.817810
       Atomic Center    9 is at   4.341598 -1.750789  1.028935
       Atomic Center   10 is at   1.337175  3.425338 -0.079220
       Atomic Center   11 is at   0.957454  3.467163 -1.097654
       Atomic Center   12 is at   0.506569  3.481083  0.624086
       Atomic Center   13 is at   2.025656  4.253047  0.089499
   10036 points will be used for fitting atomic charges
 Fitting point charges to electrostatic potential
 Charges from ESP fit, RMS=   0.00432 RRMS=   0.15639:
 ESP charges:
               1
     1  C   -0.327235
     2  H    0.181037
     3  C    0.058828
     4  N    0.585365
     5  N   -0.325466
     6  N   -0.315576
     7  B    0.746108
     8  F   -0.325473
     9  F   -0.329662
    10  C   -0.334277
    11  H    0.115804
    12  H    0.135394
    13  H    0.135152
 Sum of ESP charges =  -0.00000
 ESP charges with hydrogens summed into heavy atoms:
               1
     1  C   -0.146197
     3  C    0.058828
     4  N    0.585365
     5  N   -0.325466
     6  N   -0.315576
     7  B    0.746108
     8  F   -0.325473
     9  F   -0.329662
    10  C    0.052073
 Charge=  -0.00000 Dipole=    -2.1086     5.7041     2.2667 Tot=     6.4901
 -----------------------------------------------------------------

              Electrostatic Properties (Atomic Units)

 -----------------------------------------------------------------
    Center     Electric         -------- Electric Field --------
               Potential          X             Y             Z
 -----------------------------------------------------------------
    1 Atom    -14.700557
    2 Atom     -1.025995
    3 Atom    -14.749981
    4 Atom    -18.274871
    5 Atom    -18.341999
    6 Atom    -18.377878
    7 Atom    -11.344769
    8 Atom    -26.583372
    9 Atom    -26.592506
   10 Atom    -14.695503
   11 Atom     -1.061915
   12 Atom     -1.057349
   13 Atom     -1.057447
 -----------------------------------------------------------------
 Unable to Open any file for archive entry.
 1\1\GINC-IRENE6103\SP\RwB97XD\GenECP\C3H4B1F2N3\PENASFRA\09-Apr-2024\0
 \\# wb97xd/genecp scrf=(solvent=toluene,pcm) nosymm pop=(chelpg) scfcy
 c=300\\f_metriazole_chelpg\\0,1\C,0,2.657406,1.663348,1.148806\H,0,2.7
 13568,2.191409,2.086473\C,0,3.140753,0.43463,0.744832\N,0,2.033184,2.1
 60329,0.073285\N,0,2.113422,1.297864,-0.959376\N,0,2.772669,0.266607,-
 0.564771\B,0,3.939925,-0.600271,1.54573\F,0,4.262562,-0.367487,2.81781
 \F,0,4.341598,-1.750789,1.028935\C,0,1.337175,3.425338,-0.07922\H,0,0.
 957454,3.467163,-1.097654\H,0,0.506569,3.481083,0.624086\H,0,2.025656,
 4.253047,0.089499\\Version=AS64L-G16RevC.02\HF=-505.600357\RMSD=3.862e
 -09\Dipole=-0.8263145,2.2726859,0.9448305\Quadrupole=-7.8272324,11.246
 7963,-3.419564,9.189828,2.3809412,3.3192594\PG=C01 [X(C3H4B1F2N3)]\\@
 The archive entry for this job was punched.


 THE THINKER DIES, BUT HIS THOUGHTS ARE BEYOND THE 
 REACH OF DESTRUCTION.  MEN ARE MORTAL; BUT IDEAS 
 ARE IMMORTAL.
                              -- WALTER LIPPMANN
 Job cpu time:       0 days  0 hours 20 minutes 10.0 seconds.
 Elapsed time:       0 days  0 hours  0 minutes 12.2 seconds.
 File lengths (MBytes):  RWF=     63 Int=      0 D2E=      0 Chk=      5 Scr=      1
 Normal termination of Gaussian 16 at Tue Apr  9 17:46:09 2024.
