 Entering Gaussian System, Link 0=/ccc/products/gaussian-16-C.02/system/default/g16/g16
 Input=f_metriazolamine_chelpg.gjf
 Output=f_metriazolamine_chelpg.log
 Initial command:
 /ccc/products/gaussian-16-C.02/system/default/g16/l1.exe "/ccc/scratch/cont003/gen7343/penasfra/flp/b-n_flp/f_metriazolamine/Reactant/Gau-3887316.inp" -scrdir="/ccc/scratch/cont003/gen7343/penasfra/flp/b-n_flp/f_metriazolamine/Reactant/"
 Entering Link 1 = /ccc/products/gaussian-16-C.02/system/default/g16/l1.exe PID=   3887365.
  
 Copyright (c) 1988-2021, Gaussian, Inc.  All Rights Reserved.
  
 This is part of the Gaussian(R) 16 program.  It is based on
 the Gaussian(R) 09 system (copyright 2009, Gaussian, Inc.),
 the Gaussian(R) 03 system (copyright 2003, Gaussian, Inc.),
 the Gaussian(R) 98 system (copyright 1998, Gaussian, Inc.),
 the Gaussian(R) 94 system (copyright 1995, Gaussian, Inc.),
 the Gaussian 92(TM) system (copyright 1992, Gaussian, Inc.),
 the Gaussian 90(TM) system (copyright 1990, Gaussian, Inc.),
 the Gaussian 88(TM) system (copyright 1988, Gaussian, Inc.),
 the Gaussian 86(TM) system (copyright 1986, Carnegie Mellon
 University), and the Gaussian 82(TM) system (copyright 1983,
 Carnegie Mellon University). Gaussian is a federally registered
 trademark of Gaussian, Inc.
  
 This software contains proprietary and confidential information,
 including trade secrets, belonging to Gaussian, Inc.
  
 This software is provided under written license and may be
 used, copied, transmitted, or stored only in accord with that
 written license.
  
 The following legend is applicable only to US Government
 contracts under FAR:
  
                    RESTRICTED RIGHTS LEGEND
  
 Use, reproduction and disclosure by the US Government is
 subject to restrictions as set forth in subparagraphs (a)
 and (c) of the Commercial Computer Software - Restricted
 Rights clause in FAR 52.227-19.
  
 Gaussian, Inc.
 340 Quinnipiac St., Bldg. 40, Wallingford CT 06492
  
  
 ---------------------------------------------------------------
 Warning -- This program may not be used in any manner that
 competes with the business of Gaussian, Inc. or will provide
 assistance to any competitor of Gaussian, Inc.  The licensee
 of this program is prohibited from giving any competitor of
 Gaussian, Inc. access to this program.  By using this program,
 the user acknowledges that Gaussian, Inc. is engaged in the
 business of creating and licensing software in the field of
 computational chemistry and represents and warrants to the
 licensee that it is not a competitor of Gaussian, Inc. and that
 it will not use this program in any manner prohibited above.
 ---------------------------------------------------------------
  

 Cite this work as:
 Gaussian 16, Revision C.02,
 M. J. Frisch, G. W. Trucks, H. B. Schlegel, G. E. Scuseria, 
 M. A. Robb, J. R. Cheeseman, G. Scalmani, V. Barone, 
 G. A. Petersson, H. Nakatsuji, X. Li, M. Caricato, A. V. Marenich, 
 J. Bloino, B. G. Janesko, R. Gomperts, B. Mennucci, H. P. Hratchian, 
 J. V. Ortiz, A. F. Izmaylov, J. L. Sonnenberg, D. Williams-Young, 
 F. Ding, F. Lipparini, F. Egidi, J. Goings, B. Peng, A. Petrone, 
 T. Henderson, D. Ranasinghe, V. G. Zakrzewski, J. Gao, N. Rega, 
 G. Zheng, W. Liang, M. Hada, M. Ehara, K. Toyota, R. Fukuda, 
 J. Hasegawa, M. Ishida, T. Nakajima, Y. Honda, O. Kitao, H. Nakai, 
 T. Vreven, K. Throssell, J. A. Montgomery, Jr., J. E. Peralta, 
 F. Ogliaro, M. J. Bearpark, J. J. Heyd, E. N. Brothers, K. N. Kudin, 
 V. N. Staroverov, T. A. Keith, R. Kobayashi, J. Normand, 
 K. Raghavachari, A. P. Rendell, J. C. Burant, S. S. Iyengar, 
 J. Tomasi, M. Cossi, J. M. Millam, M. Klene, C. Adamo, R. Cammi, 
 J. W. Ochterski, R. L. Martin, K. Morokuma, O. Farkas, 
 J. B. Foresman, and D. J. Fox, Gaussian, Inc., Wallingford CT, 2019.
 
 ******************************************
 Gaussian 16:  AS64L-G16RevC.02  7-Dec-2021
                 9-Apr-2024 
 ******************************************
 %nprocshared=128
 Will use up to  128 processors via shared memory.
 %mem=30GB
 %chk=f_metriazolamine_chelpg.chk
 ----------------------------------------------------------------------
 # wb97xd/genecp scrf=(solvent=toluene,pcm) nosymm pop=(chelpg) scfcyc=
 300
 ----------------------------------------------------------------------
 1/38=1,172=1/1;
 2/12=2,15=1,17=6,18=5,40=1/2;
 3/5=7,11=2,16=1,17=8,25=1,30=1,70=2201,72=13,74=-58/1,2,3;
 4//1;
 5/5=2,7=300,38=5,53=13/2;
 6/7=2,8=2,9=2,10=2,15=8,20=3,28=1/1,2;
 99/5=1,9=1/99;
 -----------------------
 f_metriazolamine_chelpg
 -----------------------
 Symbolic Z-matrix:
 Charge =  0 Multiplicity = 1
 C                     2.6433    1.72833   1.11719 
 C                     3.0935    0.45609   0.75904 
 N                     2.0342    2.20004   0.01837 
 N                     2.0891    1.27545  -0.98932 
 N                     2.7152    0.256    -0.54825 
 B                     3.839    -0.55178   1.611 
 C                     1.40278   3.48561  -0.17727 
 H                     1.07587   3.53314  -1.2136 
 H                     0.53516   3.5926    0.47789 
 H                     2.11669   4.28849   0.01697 
 F                     4.23018  -1.74487   1.18538 
 F                     4.13292  -0.25288   2.88868 
 N                     2.79388   2.46063   2.25746 
 H                     2.0905    3.15233   2.46442 
 H                     3.11486   1.94712   3.06329 
 
                          Input orientation:                          
 ---------------------------------------------------------------------
 Center     Atomic      Atomic             Coordinates (Angstroms)
 Number     Number       Type             X           Y           Z
 ---------------------------------------------------------------------
      1          6           0        2.643297    1.728325    1.117188
      2          6           0        3.093500    0.456089    0.759037
      3          7           0        2.034201    2.200039    0.018368
      4          7           0        2.089100    1.275448   -0.989317
      5          7           0        2.715202    0.255997   -0.548246
      6          5           0        3.839000   -0.551775    1.610996
      7          6           0        1.402775    3.485610   -0.177268
      8          1           0        1.075868    3.533142   -1.213604
      9          1           0        0.535161    3.592602    0.477894
     10          1           0        2.116690    4.288487    0.016969
     11          9           0        4.230181   -1.744866    1.185379
     12          9           0        4.132924   -0.252880    2.888677
     13          7           0        2.793883    2.460626    2.257461
     14          1           0        2.090499    3.152335    2.464418
     15          1           0        3.114860    1.947117    3.063289
 ---------------------------------------------------------------------
                    Distance matrix (angstroms):
                    1          2          3          4          5
     1  C    0.000000
     2  C    1.396259   0.000000
     3  N    1.341983   2.170729   0.000000
     4  N    2.224769   2.176444   1.368690   0.000000
     5  N    2.224093   1.375549   2.136378   1.275079   0.000000
     6  B    2.621528   1.515716   3.655987   3.628019   2.564711
     7  C    2.510490   3.593496   1.445567   2.452607   3.505779
     8  H    3.338681   4.174974   2.052638   2.484779   3.724218
     9  H    2.885908   4.057321   2.097026   3.152243   4.115638
    10  H    2.835882   4.023940   2.090077   3.176756   4.115660
    11  F    3.819150   2.513566   4.663316   4.293696   3.050257
    12  F    3.046692   2.473541   4.319737   4.642396   3.752510
    13  N    1.363511   2.520558   2.378773   3.527454   3.569114
    14  H    2.036767   3.344260   2.625490   3.930775   4.225538
    15  H    2.014336   2.744667   3.240885   4.234022   4.007842
                    6          7          8          9         10
     6  B    0.000000
     7  C    5.043169   0.000000
     8  H    5.683292   1.087713   0.000000
     9  H    5.419883   1.092446   1.776813   0.000000
    10  H    5.379164   1.091794   1.779934   1.788279   0.000000
    11  F    1.325760   6.099911   6.600165   6.530105   6.498721
    12  F    1.344693   5.552481   6.364610   5.791675   5.738983
    13  N    3.253421   2.985578   4.018726   3.090316   2.969759
    14  H    4.184019   2.750008   3.834363   2.561091   2.698432
    15  H    2.979596   3.974847   4.996476   4.005838   3.969688
                   11         12         13         14         15
    11  F    0.000000
    12  F    2.266430   0.000000
    13  N    4.571485   3.091048   0.000000
    14  H    5.495158   3.993368   1.007989   0.000000
    15  H    4.289665   2.430418   1.008006   1.691305   0.000000
 Symmetry turned off by external request.
 Stoichiometry    C3H5BF2N4
 Framework group  C1[X(C3H5BF2N4)]
 Deg. of freedom    39
 Full point group                 C1      NOp   1
 Rotational constants (GHZ):           2.6799606           0.9371902           0.6978371
 General basis read from cards:  (5D, 7F)
 ======================================================================================================
                                       Pseudopotential Parameters
 ======================================================================================================
  Center     Atomic      Valence      Angular      Power
  Number     Number     Electrons     Momentum     of R      Exponent        Coefficient   SO-Coeffient
 ======================================================================================================
    1          6
                                   No pseudopotential on this center.
    2          6
                                   No pseudopotential on this center.
    3          7
                                   No pseudopotential on this center.
    4          7
                                   No pseudopotential on this center.
    5          7
                                   No pseudopotential on this center.
    6          5
                                   No pseudopotential on this center.
    7          6
                                   No pseudopotential on this center.
    8          1
                                   No pseudopotential on this center.
    9          1
                                   No pseudopotential on this center.
   10          1
                                   No pseudopotential on this center.
   11          9
                                   No pseudopotential on this center.
   12          9
                                   No pseudopotential on this center.
   13          7
                                   No pseudopotential on this center.
   14          1
                                   No pseudopotential on this center.
   15          1
                                   No pseudopotential on this center.
 ======================================================================================================
   255 basis functions,   405 primitive gaussians,   265 cartesian basis functions
    37 alpha electrons       37 beta electrons
       nuclear repulsion energy       519.7082663702 Hartrees.
 NAtoms=   15 NActive=   15 NUniq=   15 SFac= 1.00D+00 NAtFMM=   60 NAOKFM=F Big=F
 Integral buffers will be    131072 words long.
 Raffenetti 2 integral format.
 Two-electron integral symmetry is turned off.
 Nuclear repulsion after empirical dispersion term =      519.7007816189 Hartrees.
 ------------------------------------------------------------------------------
 Polarizable Continuum Model (PCM)
 =================================
 Model                : PCM.
 Atomic radii         : UFF (Universal Force Field).
 Polarization charges : Total charges.
 Charge compensation  : None.
 Solution method      : On-the-fly selection.
 Cavity type          : Scaled VdW (van der Waals Surface) (Alpha=1.100).
 Cavity algorithm     : GePol (No added spheres)
                        Default sphere list used, NSphG=   15.
                        Lebedev-Laikov grids with approx.  5.0 points / Ang**2.
                        Smoothing algorithm: York/Karplus (Gamma=1.0000).
                        Polarization charges: spherical gaussians, with
                                              point-specific exponents (IZeta= 3).
                        Self-potential: point-specific (ISelfS= 7).
                        Self-field    : sphere-specific E.n sum rule (ISelfD= 2).
 Solvent              : Toluene, Eps=   2.374100 Eps(inf)=   2.238315
 ------------------------------------------------------------------------------
 Spheres list:
 ISph  on   Nord     Re0    Alpha      Xe            Ye            Ze
    1   C      1    1.9255  1.100      2.643297      1.728325      1.117188
    2   C      2    1.9255  1.100      3.093500      0.456089      0.759037
    3   N      3    1.8300  1.100      2.034201      2.200039      0.018368
    4   N      4    1.8300  1.100      2.089100      1.275448     -0.989317
    5   N      5    1.8300  1.100      2.715202      0.255997     -0.548246
    6   B      6    2.0415  1.100      3.839000     -0.551775      1.610996
    7   C      7    1.9255  1.100      1.402775      3.485610     -0.177268
    8   H      8    1.4430  1.100      1.075868      3.533142     -1.213604
    9   H      9    1.4430  1.100      0.535161      3.592602      0.477894
   10   H     10    1.4430  1.100      2.116690      4.288487      0.016969
   11   F     11    1.6820  1.100      4.230181     -1.744866      1.185379
   12   F     12    1.6820  1.100      4.132924     -0.252880      2.888677
   13   N     13    1.8300  1.100      2.793883      2.460626      2.257461
   14   H     14    1.4430  1.100      2.090499      3.152335      2.464418
   15   H     15    1.4430  1.100      3.114860      1.947117      3.063289
 ------------------------------------------------------------------------------
 One-electron integrals computed using PRISM.
   1 Symmetry operations used in ECPInt.
 ECPInt:  NShTT=    3655 NPrTT=   13890 LenC2=    3530 LenP2D=    9847.
 LDataN:  DoStor=T MaxTD1= 4 Len=   56
 NBasis=   255 RedAO= T EigKep=  4.45D-06  NBF=   255
 NBsUse=   255 1.00D-06 EigRej= -1.00D+00 NBFU=   255
 ExpMin= 3.15D-02 ExpMax= 1.14D+04 ExpMxC= 1.72D+03 IAcc=3 IRadAn=         5 AccDes= 0.00D+00
 Harris functional with IExCor= 4639 and IRadAn=       5 diagonalized for initial guess.
 HarFok:  IExCor= 4639 AccDes= 0.00D+00 IRadAn=         5 IDoV= 1 UseB2=F ITyADJ=14
 ICtDFT=  3500011 ScaDFX=  1.000000  1.000000  1.000000  1.000000
 FoFCou: FMM=F IPFlag=           0 FMFlag=      100000 FMFlg1=           0
         NFxFlg=           0 DoJE=T BraDBF=F KetDBF=T FulRan=T
         wScrn=  0.000000 ICntrl=       500 IOpCl=  0 I1Cent=   200000004 NGrid=           0
         NMat0=    1 NMatS0=      1 NMatT0=    0 NMatD0=    1 NMtDS0=    0 NMtDT0=    0
 Symmetry not used in FoFCou.
 Requested convergence on RMS density matrix=1.00D-08 within 300 cycles.
 Requested convergence on MAX density matrix=1.00D-06.
 Requested convergence on             energy=1.00D-06.
 No special actions if energy rises.
 Inv3:  Mode=1 IEnd=     6290112.
 Iteration    1 A*A^-1 deviation from unit magnitude is 2.66D-15 for   1081.
 Iteration    1 A*A^-1 deviation from orthogonality  is 1.60D-15 for   1081    344.
 Iteration    1 A^-1*A deviation from unit magnitude is 2.55D-15 for   1436.
 Iteration    1 A^-1*A deviation from orthogonality  is 3.92D-15 for   1114   1081.
 Error on total polarization charges =  0.00803
 SCF Done:  E(RwB97XD) =  -560.966203000     A.U. after   15 cycles
            NFock= 15  Conv=0.60D-08     -V/T= 2.0032

 **********************************************************************

            Population analysis using the SCF Density.

 **********************************************************************

 Alpha  occ. eigenvalues --  -24.82494 -24.81979 -14.53107 -14.49955 -14.47767
 Alpha  occ. eigenvalues --  -14.46988 -10.39321 -10.34464 -10.30010  -6.95866
 Alpha  occ. eigenvalues --   -1.34346  -1.31396  -1.22066  -1.07376  -1.02188
 Alpha  occ. eigenvalues --   -0.90184  -0.84944  -0.75439  -0.71140  -0.68064
 Alpha  occ. eigenvalues --   -0.65189  -0.62664  -0.62148  -0.60781  -0.60262
 Alpha  occ. eigenvalues --   -0.58224  -0.55915  -0.52942  -0.52316  -0.52167
 Alpha  occ. eigenvalues --   -0.51347  -0.48955  -0.45982  -0.43324  -0.37779
 Alpha  occ. eigenvalues --   -0.36486  -0.32230
 Alpha virt. eigenvalues --    0.03193   0.03948   0.05357   0.06168   0.06393
 Alpha virt. eigenvalues --    0.07314   0.07955   0.08740   0.08991   0.09595
 Alpha virt. eigenvalues --    0.11093   0.12212   0.13239   0.14108   0.14871
 Alpha virt. eigenvalues --    0.15642   0.16570   0.17485   0.17666   0.18707
 Alpha virt. eigenvalues --    0.18729   0.19362   0.20170   0.20634   0.21449
 Alpha virt. eigenvalues --    0.22252   0.22782   0.23737   0.24225   0.24833
 Alpha virt. eigenvalues --    0.25205   0.26264   0.26793   0.28069   0.28900
 Alpha virt. eigenvalues --    0.30010   0.30263   0.31822   0.32343   0.33033
 Alpha virt. eigenvalues --    0.33814   0.34186   0.34582   0.35163   0.35415
 Alpha virt. eigenvalues --    0.36494   0.37840   0.38516   0.38848   0.39339
 Alpha virt. eigenvalues --    0.40993   0.41840   0.42475   0.43585   0.44530
 Alpha virt. eigenvalues --    0.47251   0.47998   0.50738   0.51153   0.52298
 Alpha virt. eigenvalues --    0.53430   0.54011   0.55184   0.57153   0.59860
 Alpha virt. eigenvalues --    0.63452   0.64884   0.66850   0.68186   0.68361
 Alpha virt. eigenvalues --    0.69408   0.70225   0.70981   0.71905   0.73019
 Alpha virt. eigenvalues --    0.75080   0.76943   0.81719   0.85926   0.86516
 Alpha virt. eigenvalues --    0.87585   0.89269   0.90019   0.90826   0.92501
 Alpha virt. eigenvalues --    0.93951   0.95813   0.96745   0.98126   0.99968
 Alpha virt. eigenvalues --    1.01410   1.01917   1.03683   1.07112   1.08153
 Alpha virt. eigenvalues --    1.12333   1.12953   1.19137   1.23688   1.25377
 Alpha virt. eigenvalues --    1.30798   1.33323   1.33952   1.34602   1.35425
 Alpha virt. eigenvalues --    1.39372   1.41578   1.42328   1.43796   1.44922
 Alpha virt. eigenvalues --    1.47857   1.50434   1.50778   1.55078   1.56409
 Alpha virt. eigenvalues --    1.58916   1.59611   1.61703   1.63873   1.65417
 Alpha virt. eigenvalues --    1.68499   1.70596   1.73159   1.74651   1.75834
 Alpha virt. eigenvalues --    1.78246   1.82202   1.85440   1.87091   1.90511
 Alpha virt. eigenvalues --    1.93717   1.97100   2.02389   2.02763   2.04433
 Alpha virt. eigenvalues --    2.08896   2.11972   2.13901   2.15949   2.19767
 Alpha virt. eigenvalues --    2.21343   2.23323   2.25382   2.34737   2.36381
 Alpha virt. eigenvalues --    2.38098   2.45162   2.46910   2.49767   2.53898
 Alpha virt. eigenvalues --    2.58281   2.59323   2.62487   2.64338   2.65502
 Alpha virt. eigenvalues --    2.69119   2.70834   2.77033   2.79990   2.80362
 Alpha virt. eigenvalues --    2.83282   2.84557   2.85498   2.89145   2.94077
 Alpha virt. eigenvalues --    3.02449   3.06678   3.07973   3.10139   3.14804
 Alpha virt. eigenvalues --    3.21385   3.26378   3.37652   3.49061   3.61356
 Alpha virt. eigenvalues --    3.64771   3.78415   3.78965   3.84248   3.86525
 Alpha virt. eigenvalues --    3.87606   3.87711   3.90821   3.92357   3.98295
 Alpha virt. eigenvalues --    4.03619   4.04972   4.05903   4.08636   4.10055
 Alpha virt. eigenvalues --    4.13091   4.15738   4.27922   4.37810   4.55371
 Alpha virt. eigenvalues --    4.67115   4.73578   4.85128   4.85714   5.07120
 Alpha virt. eigenvalues --    5.19962   5.74279   6.38613   6.40220   6.41577
 Alpha virt. eigenvalues --    6.51032   6.53359   6.75848  14.77840  23.89417
 Alpha virt. eigenvalues --   24.05367  24.18452  35.53178  35.63273  35.78176
 Alpha virt. eigenvalues --   35.82193  66.92946  66.94279
          Condensed to atoms (all electrons):
               1          2          3          4          5          6
     1  C   12.514847  -5.630510  -0.291488   0.104261  -0.035832  -0.340559
     2  C   -5.630510  10.937866  -0.034911   0.090954   0.240738   0.703192
     3  N   -0.291488  -0.034911   7.416734  -0.288768   0.131254   0.036417
     4  N    0.104261   0.090954  -0.288768   7.079338   0.082548  -0.003411
     5  N   -0.035832   0.240738   0.131254   0.082548   6.770080  -0.095422
     6  B   -0.340559   0.703192   0.036417  -0.003411  -0.095422   3.599395
     7  C   -0.122861  -0.032459   0.136902   0.012482   0.023995   0.001537
     8  H    0.056845  -0.032621  -0.088335   0.053222  -0.000486  -0.002369
     9  H   -0.042407   0.040518  -0.012893  -0.025410   0.002325   0.000351
    10  H    0.012207  -0.037722  -0.013681  -0.031237   0.006428  -0.000789
    11  F    0.090213  -0.063036   0.004316  -0.003330   0.010060   0.351714
    12  F   -0.057636   0.029149  -0.005338   0.009108  -0.000690   0.398111
    13  N    0.047618   0.101747  -0.128405   0.014091  -0.009940  -0.007427
    14  H   -0.059589   0.056910  -0.027763   0.008232  -0.003703   0.001076
    15  H   -0.043434   0.001786   0.010027  -0.000476  -0.000876  -0.005137
               7          8          9         10         11         12
     1  C   -0.122861   0.056845  -0.042407   0.012207   0.090213  -0.057636
     2  C   -0.032459  -0.032621   0.040518  -0.037722  -0.063036   0.029149
     3  N    0.136902  -0.088335  -0.012893  -0.013681   0.004316  -0.005338
     4  N    0.012482   0.053222  -0.025410  -0.031237  -0.003330   0.009108
     5  N    0.023995  -0.000486   0.002325   0.006428   0.010060  -0.000690
     6  B    0.001537  -0.002369   0.000351  -0.000789   0.351714   0.398111
     7  C    5.259795   0.391969   0.385627   0.405066   0.000542   0.000571
     8  H    0.391969   0.438465  -0.018259  -0.016082   0.000119  -0.000040
     9  H    0.385627  -0.018259   0.540003  -0.059758   0.000095  -0.000069
    10  H    0.405066  -0.016082  -0.059758   0.522236   0.000110  -0.000074
    11  F    0.000542   0.000119   0.000095   0.000110   8.694656  -0.061535
    12  F    0.000571  -0.000040  -0.000069  -0.000074  -0.061535   8.750739
    13  N   -0.006709   0.000785  -0.009240   0.007145  -0.005689  -0.000064
    14  H    0.001522   0.000743  -0.005011  -0.004674  -0.000430   0.000470
    15  H   -0.000643   0.000150   0.000566   0.000983   0.001029   0.009548
              13         14         15
     1  C    0.047618  -0.059589  -0.043434
     2  C    0.101747   0.056910   0.001786
     3  N   -0.128405  -0.027763   0.010027
     4  N    0.014091   0.008232  -0.000476
     5  N   -0.009940  -0.003703  -0.000876
     6  B   -0.007427   0.001076  -0.005137
     7  C   -0.006709   0.001522  -0.000643
     8  H    0.000785   0.000743   0.000150
     9  H   -0.009240  -0.005011   0.000566
    10  H    0.007145  -0.004674   0.000983
    11  F   -0.005689  -0.000430   0.001029
    12  F   -0.000064   0.000470   0.009548
    13  N    6.659839   0.372727   0.374450
    14  H    0.372727   0.409804  -0.037423
    15  H    0.374450  -0.037423   0.370405
 Mulliken charges:
               1
     1  C   -0.201675
     2  C   -0.371603
     3  N    0.155934
     4  N   -0.101605
     5  N   -0.120477
     6  B    0.363322
     7  C   -0.457336
     8  H    0.215894
     9  H    0.203560
    10  H    0.209843
    11  F   -0.018833
    12  F   -0.072251
    13  N   -0.410926
    14  H    0.287109
    15  H    0.319045
 Sum of Mulliken charges =  -0.00000
 Mulliken charges with hydrogens summed into heavy atoms:
               1
     1  C   -0.201675
     2  C   -0.371603
     3  N    0.155934
     4  N   -0.101605
     5  N   -0.120477
     6  B    0.363322
     7  C    0.171961
    11  F   -0.018833
    12  F   -0.072251
    13  N    0.195228
 Electronic spatial extent (au):  <R**2>=           4143.0853
 Charge=             -0.0000 electrons
 Dipole moment (field-independent basis, Debye):
    X=             -2.6081    Y=              6.4444    Z=              3.6513  Tot=              7.8527
 Quadrupole moment (field-independent basis, Debye-Ang):
   XX=            -69.6149   YY=            -39.2293   ZZ=            -54.3407
   XY=             11.6267   XZ=              5.0077   YZ=              7.9571
 Traceless Quadrupole moment (field-independent basis, Debye-Ang):
   XX=            -15.2200   YY=             15.1657   ZZ=              0.0543
   XY=             11.6267   XZ=              5.0077   YZ=              7.9571
 Octapole moment (field-independent basis, Debye-Ang**2):
  XXX=           -531.2872  YYY=           -107.4145  ZZZ=           -113.4881  XYY=           -146.7905
  XXY=            -33.1441  XXZ=            -46.2253  XZZ=           -164.1157  YZZ=            -38.0456
  YYZ=            -30.2280  XYZ=             17.3442
 Hexadecapole moment (field-independent basis, Debye-Ang**3):
 XXXX=          -3230.2599 YYYY=          -1016.6732 ZZZZ=           -716.8480 XXXY=           -220.6774
 XXXZ=           -560.2462 YYYX=           -198.0236 YYYZ=            -15.5827 ZZZX=           -480.5635
 ZZZY=             23.1364 XXYY=           -749.3487 XXZZ=           -686.3772 YYZZ=           -278.2878
 XXYZ=             22.2997 YYXZ=           -155.9317 ZZXY=            -50.6741
 N-N= 5.197007816189D+02 E-N=-2.358294284665D+03  KE= 5.591639714870D+02
 Breneman (CHELPG) radii used.
 Generate Potential Derived Charges using the Breneman model, NDens= 1.
 Grid spacing= 0.300 Box extension= 2.800
 NStep X,Y,Z=   31     40     34   Total possible points=       42160
 Number of Points to Fit=   10494

 **********************************************************************

            Electrostatic Properties Using The SCF Density.

 **********************************************************************

       Atomic Center    1 is at   2.643297  1.728325  1.117188
       Atomic Center    2 is at   3.093500  0.456089  0.759037
       Atomic Center    3 is at   2.034201  2.200039  0.018368
       Atomic Center    4 is at   2.089100  1.275448 -0.989317
       Atomic Center    5 is at   2.715202  0.255997 -0.548246
       Atomic Center    6 is at   3.839000 -0.551775  1.610996
       Atomic Center    7 is at   1.402775  3.485610 -0.177268
       Atomic Center    8 is at   1.075868  3.533142 -1.213604
       Atomic Center    9 is at   0.535161  3.592602  0.477894
       Atomic Center   10 is at   2.116690  4.288487  0.016969
       Atomic Center   11 is at   4.230181 -1.744866  1.185379
       Atomic Center   12 is at   4.132924 -0.252880  2.888677
       Atomic Center   13 is at   2.793883  2.460626  2.257461
       Atomic Center   14 is at   2.090499  3.152335  2.464418
       Atomic Center   15 is at   3.114860  1.947117  3.063289
   10494 points will be used for fitting atomic charges
 Fitting point charges to electrostatic potential
 Charges from ESP fit, RMS=   0.00432 RRMS=   0.14334:
 ESP charges:
               1
     1  C    0.216749
     2  C   -0.128596
     3  N    0.449488
     4  N   -0.343752
     5  N   -0.283768
     6  B    0.749899
     7  C   -0.317555
     8  H    0.122479
     9  H    0.116918
    10  H    0.145123
    11  F   -0.334143
    12  F   -0.331116
    13  N   -0.844525
    14  H    0.380053
    15  H    0.402745
 Sum of ESP charges =   0.00000
 ESP charges with hydrogens summed into heavy atoms:
               1
     1  C    0.216749
     2  C   -0.128596
     3  N    0.449488
     4  N   -0.343752
     5  N   -0.283768
     6  B    0.749899
     7  C    0.066965
    11  F   -0.334143
    12  F   -0.331116
    13  N   -0.061727
 Charge=   0.00000 Dipole=    -2.6739     6.3364     3.5246 Tot=     7.7281
 -----------------------------------------------------------------

              Electrostatic Properties (Atomic Units)

 -----------------------------------------------------------------
    Center     Electric         -------- Electric Field --------
               Potential          X             Y             Z
 -----------------------------------------------------------------
    1 Atom    -14.662086
    2 Atom    -14.765389
    3 Atom    -18.292188
    4 Atom    -18.354436
    5 Atom    -18.385171
    6 Atom    -11.355336
    7 Atom    -14.697323
    8 Atom     -1.063298
    9 Atom     -1.057453
   10 Atom     -1.060112
   11 Atom    -26.600547
   12 Atom    -26.584926
   13 Atom    -18.331895
   14 Atom     -0.971965
   15 Atom     -0.984378
 -----------------------------------------------------------------
 Unable to Open any file for archive entry.
 1\1\GINC-IRENE4590\SP\RwB97XD\GenECP\C3H5B1F2N4\PENASFRA\09-Apr-2024\0
 \\# wb97xd/genecp scrf=(solvent=toluene,pcm) nosymm pop=(chelpg) scfcy
 c=300\\f_metriazolamine_chelpg\\0,1\C,0,2.643297,1.728325,1.117188\C,0
 ,3.0935,0.456089,0.759037\N,0,2.034201,2.200039,0.018368\N,0,2.0891,1.
 275448,-0.989317\N,0,2.715202,0.255997,-0.548246\B,0,3.839,-0.551775,1
 .610996\C,0,1.402775,3.48561,-0.177268\H,0,1.075868,3.533142,-1.213604
 \H,0,0.535161,3.592602,0.477894\H,0,2.11669,4.288487,0.016969\F,0,4.23
 0181,-1.744866,1.185379\F,0,4.132924,-0.25288,2.888677\N,0,2.793883,2.
 460626,2.257461\H,0,2.090499,3.152335,2.464418\H,0,3.11486,1.947117,3.
 063289\\Version=AS64L-G16RevC.02\HF=-560.966203\RMSD=5.979e-09\Dipole=
 -1.026106,2.5354296,1.4365176\Quadrupole=-11.3156732,11.2752929,0.0403
 803,8.6441689,3.7231239,5.9159098\PG=C01 [X(C3H5B1F2N4)]\\@
 The archive entry for this job was punched.


 ACCORDING TO HEN3RY, LIFE IS MUCH LIKE A SEWER........
 YOU GET OUT OF IT JUST WHAT YOU PUT INTO IT...........
                         TOM LEHRER - (THE 3 IS SILENT)
 Job cpu time:       0 days  0 hours 23 minutes 50.4 seconds.
 Elapsed time:       0 days  0 hours  0 minutes 14.4 seconds.
 File lengths (MBytes):  RWF=     75 Int=      0 D2E=      0 Chk=      5 Scr=      1
 Normal termination of Gaussian 16 at Tue Apr  9 18:05:24 2024.
