 Entering Gaussian System, Link 0=/ccc/products/gaussian-16-C.02/system/default/g16/g16
 Input=f_nmeimidazole_chelpg.gjf
 Output=f_nmeimidazole_chelpg.log
 Initial command:
 /ccc/products/gaussian-16-C.02/system/default/g16/l1.exe "/ccc/scratch/cont003/gen7343/penasfra/flp/b-n_flp/f_nmeimidazole/reac/Gau-1791929.inp" -scrdir="/ccc/scratch/cont003/gen7343/penasfra/flp/b-n_flp/f_nmeimidazole/reac/"
 Entering Link 1 = /ccc/products/gaussian-16-C.02/system/default/g16/l1.exe PID=   1791979.
  
 Copyright (c) 1988-2021, Gaussian, Inc.  All Rights Reserved.
  
 This is part of the Gaussian(R) 16 program.  It is based on
 the Gaussian(R) 09 system (copyright 2009, Gaussian, Inc.),
 the Gaussian(R) 03 system (copyright 2003, Gaussian, Inc.),
 the Gaussian(R) 98 system (copyright 1998, Gaussian, Inc.),
 the Gaussian(R) 94 system (copyright 1995, Gaussian, Inc.),
 the Gaussian 92(TM) system (copyright 1992, Gaussian, Inc.),
 the Gaussian 90(TM) system (copyright 1990, Gaussian, Inc.),
 the Gaussian 88(TM) system (copyright 1988, Gaussian, Inc.),
 the Gaussian 86(TM) system (copyright 1986, Carnegie Mellon
 University), and the Gaussian 82(TM) system (copyright 1983,
 Carnegie Mellon University). Gaussian is a federally registered
 trademark of Gaussian, Inc.
  
 This software contains proprietary and confidential information,
 including trade secrets, belonging to Gaussian, Inc.
  
 This software is provided under written license and may be
 used, copied, transmitted, or stored only in accord with that
 written license.
  
 The following legend is applicable only to US Government
 contracts under FAR:
  
                    RESTRICTED RIGHTS LEGEND
  
 Use, reproduction and disclosure by the US Government is
 subject to restrictions as set forth in subparagraphs (a)
 and (c) of the Commercial Computer Software - Restricted
 Rights clause in FAR 52.227-19.
  
 Gaussian, Inc.
 340 Quinnipiac St., Bldg. 40, Wallingford CT 06492
  
  
 ---------------------------------------------------------------
 Warning -- This program may not be used in any manner that
 competes with the business of Gaussian, Inc. or will provide
 assistance to any competitor of Gaussian, Inc.  The licensee
 of this program is prohibited from giving any competitor of
 Gaussian, Inc. access to this program.  By using this program,
 the user acknowledges that Gaussian, Inc. is engaged in the
 business of creating and licensing software in the field of
 computational chemistry and represents and warrants to the
 licensee that it is not a competitor of Gaussian, Inc. and that
 it will not use this program in any manner prohibited above.
 ---------------------------------------------------------------
  

 Cite this work as:
 Gaussian 16, Revision C.02,
 M. J. Frisch, G. W. Trucks, H. B. Schlegel, G. E. Scuseria, 
 M. A. Robb, J. R. Cheeseman, G. Scalmani, V. Barone, 
 G. A. Petersson, H. Nakatsuji, X. Li, M. Caricato, A. V. Marenich, 
 J. Bloino, B. G. Janesko, R. Gomperts, B. Mennucci, H. P. Hratchian, 
 J. V. Ortiz, A. F. Izmaylov, J. L. Sonnenberg, D. Williams-Young, 
 F. Ding, F. Lipparini, F. Egidi, J. Goings, B. Peng, A. Petrone, 
 T. Henderson, D. Ranasinghe, V. G. Zakrzewski, J. Gao, N. Rega, 
 G. Zheng, W. Liang, M. Hada, M. Ehara, K. Toyota, R. Fukuda, 
 J. Hasegawa, M. Ishida, T. Nakajima, Y. Honda, O. Kitao, H. Nakai, 
 T. Vreven, K. Throssell, J. A. Montgomery, Jr., J. E. Peralta, 
 F. Ogliaro, M. J. Bearpark, J. J. Heyd, E. N. Brothers, K. N. Kudin, 
 V. N. Staroverov, T. A. Keith, R. Kobayashi, J. Normand, 
 K. Raghavachari, A. P. Rendell, J. C. Burant, S. S. Iyengar, 
 J. Tomasi, M. Cossi, J. M. Millam, M. Klene, C. Adamo, R. Cammi, 
 J. W. Ochterski, R. L. Martin, K. Morokuma, O. Farkas, 
 J. B. Foresman, and D. J. Fox, Gaussian, Inc., Wallingford CT, 2019.
 
 ******************************************
 Gaussian 16:  AS64L-G16RevC.02  7-Dec-2021
                10-Apr-2024 
 ******************************************
 %nprocshared=128
 Will use up to  128 processors via shared memory.
 %mem=30GB
 %chk=f_nmeimidazole_chelpg.chk
 ----------------------------------------------------------------------
 # wb97xd/genecp scrf=(solvent=toluene,pcm) nosymm pop=(chelpg) scfcyc=
 300
 ----------------------------------------------------------------------
 1/38=1,172=1/1;
 2/12=2,15=1,17=6,18=5,40=1/2;
 3/5=7,11=2,16=1,17=8,25=1,30=1,70=2201,72=13,74=-58/1,2,3;
 4//1;
 5/5=2,7=300,38=5,53=13/2;
 6/7=2,8=2,9=2,10=2,15=8,20=3,28=1/1,2;
 99/5=1,9=1/99;
 ---------------------
 f_nmeimidazole_chelpg
 ---------------------
 Symbolic Z-matrix:
 Charge =  0 Multiplicity = 1
 C                     2.64679   1.59101   1.08979 
 H                     2.66166   2.12072   2.02933 
 C                     3.19178   0.38157   0.7148 
 N                     2.01538   2.08713  -0.00691 
 N                     2.88955   0.14097  -0.61701 
 B                     4.00464  -0.56891   1.59294 
 C                     1.28358   3.33898  -0.09701 
 H                     0.94222   3.47234  -1.12256 
 H                     0.41747   3.32042   0.56562 
 H                     1.93195   4.17367   0.17102 
 C                     2.19335   1.1718   -1.0062 
 H                     1.78429   1.32761  -1.99433 
 F                     4.49769  -1.72158   1.15459 
 F                     4.25928  -0.27156   2.87193 
 
                          Input orientation:                          
 ---------------------------------------------------------------------
 Center     Atomic      Atomic             Coordinates (Angstroms)
 Number     Number       Type             X           Y           Z
 ---------------------------------------------------------------------
      1          6           0        2.646787    1.591008    1.089789
      2          1           0        2.661659    2.120720    2.029329
      3          6           0        3.191780    0.381566    0.714802
      4          7           0        2.015375    2.087132   -0.006907
      5          7           0        2.889546    0.140968   -0.617006
      6          5           0        4.004635   -0.568905    1.592941
      7          6           0        1.283577    3.338984   -0.097011
      8          1           0        0.942222    3.472339   -1.122556
      9          1           0        0.417467    3.320421    0.565618
     10          1           0        1.931946    4.173669    0.171022
     11          6           0        2.193347    1.171800   -1.006199
     12          1           0        1.784288    1.327606   -1.994330
     13          9           0        4.497691   -1.721582    1.154592
     14          9           0        4.259278   -0.271559    2.871931
 ---------------------------------------------------------------------
                    Distance matrix (angstroms):
                    1          2          3          4          5
     1  C    0.000000
     2  H    1.078680   0.000000
     3  C    1.378544   2.243583   0.000000
     4  N    1.359251   2.136602   2.194026   0.000000
     5  N    2.252709   3.312769   1.386703   2.218998   0.000000
     6  B    2.600411   3.037779   1.528155   3.683911   2.575113
     7  C    2.514410   2.811512   3.612008   1.452853   3.616191
     8  H    3.367405   3.836368   4.241376   2.077289   3.891746
     9  H    2.869755   2.935665   4.044247   2.098117   4.197463
    10  H    2.832890   2.863632   4.032732   2.095771   4.219083
    11  C    2.185065   3.214684   2.140837   1.366781   1.303372
    12  H    3.213265   4.193881   3.196157   2.140124   2.127610
    13  F    3.795168   4.347351   2.514369   4.692257   3.032125
    14  F    3.040611   2.997560   2.493858   4.345829   3.770812
                    6          7          8          9         10
     6  B    0.000000
     7  C    5.052889   0.000000
     8  H    5.751865   1.089059   0.000000
     9  H    5.389807   1.090673   1.774367   0.000000
    10  H    5.367486   1.090378   1.773348   1.782522   0.000000
    11  C    3.614740   2.520117   2.621323   3.200145   3.235027
    12  H    4.625495   2.810013   2.463523   3.520347   3.579194
    13  F    1.328126   6.124244   6.693548   6.512827   6.504186
    14  F    1.337562   5.541248   6.401215   5.742901   5.698371
                   11         12         13         14
    11  C    0.000000
    12  H    1.080744   0.000000
    13  F    4.283769   5.155173   0.000000
    14  F    4.625067   5.688884   2.260235   0.000000
 Symmetry turned off by external request.
 Stoichiometry    C4H5BF2N2
 Framework group  C1[X(C4H5BF2N2)]
 Deg. of freedom    36
 Full point group                 C1      NOp   1
 Rotational constants (GHZ):           4.1755657           0.9522246           0.7792277
 General basis read from cards:  (5D, 7F)
 ======================================================================================================
                                       Pseudopotential Parameters
 ======================================================================================================
  Center     Atomic      Valence      Angular      Power
  Number     Number     Electrons     Momentum     of R      Exponent        Coefficient   SO-Coeffient
 ======================================================================================================
    1          6
                                   No pseudopotential on this center.
    2          1
                                   No pseudopotential on this center.
    3          6
                                   No pseudopotential on this center.
    4          7
                                   No pseudopotential on this center.
    5          7
                                   No pseudopotential on this center.
    6          5
                                   No pseudopotential on this center.
    7          6
                                   No pseudopotential on this center.
    8          1
                                   No pseudopotential on this center.
    9          1
                                   No pseudopotential on this center.
   10          1
                                   No pseudopotential on this center.
   11          6
                                   No pseudopotential on this center.
   12          1
                                   No pseudopotential on this center.
   13          9
                                   No pseudopotential on this center.
   14          9
                                   No pseudopotential on this center.
 ======================================================================================================
   233 basis functions,   369 primitive gaussians,   242 cartesian basis functions
    33 alpha electrons       33 beta electrons
       nuclear repulsion energy       416.8864122078 Hartrees.
 NAtoms=   14 NActive=   14 NUniq=   14 SFac= 1.00D+00 NAtFMM=   60 NAOKFM=F Big=F
 Integral buffers will be    131072 words long.
 Raffenetti 2 integral format.
 Two-electron integral symmetry is turned off.
 Nuclear repulsion after empirical dispersion term =      416.8802668526 Hartrees.
 ------------------------------------------------------------------------------
 Polarizable Continuum Model (PCM)
 =================================
 Model                : PCM.
 Atomic radii         : UFF (Universal Force Field).
 Polarization charges : Total charges.
 Charge compensation  : None.
 Solution method      : On-the-fly selection.
 Cavity type          : Scaled VdW (van der Waals Surface) (Alpha=1.100).
 Cavity algorithm     : GePol (No added spheres)
                        Default sphere list used, NSphG=   14.
                        Lebedev-Laikov grids with approx.  5.0 points / Ang**2.
                        Smoothing algorithm: York/Karplus (Gamma=1.0000).
                        Polarization charges: spherical gaussians, with
                                              point-specific exponents (IZeta= 3).
                        Self-potential: point-specific (ISelfS= 7).
                        Self-field    : sphere-specific E.n sum rule (ISelfD= 2).
 Solvent              : Toluene, Eps=   2.374100 Eps(inf)=   2.238315
 ------------------------------------------------------------------------------
 Spheres list:
 ISph  on   Nord     Re0    Alpha      Xe            Ye            Ze
    1   C      1    1.9255  1.100      2.646787      1.591008      1.089789
    2   H      2    1.4430  1.100      2.661659      2.120720      2.029329
    3   C      3    1.9255  1.100      3.191780      0.381566      0.714802
    4   N      4    1.8300  1.100      2.015375      2.087132     -0.006907
    5   N      5    1.8300  1.100      2.889546      0.140968     -0.617006
    6   B      6    2.0415  1.100      4.004635     -0.568905      1.592941
    7   C      7    1.9255  1.100      1.283577      3.338984     -0.097011
    8   H      8    1.4430  1.100      0.942222      3.472339     -1.122556
    9   H      9    1.4430  1.100      0.417467      3.320421      0.565618
   10   H     10    1.4430  1.100      1.931946      4.173669      0.171022
   11   C     11    1.9255  1.100      2.193347      1.171800     -1.006199
   12   H     12    1.4430  1.100      1.784288      1.327606     -1.994330
   13   F     13    1.6820  1.100      4.497691     -1.721582      1.154592
   14   F     14    1.6820  1.100      4.259278     -0.271559      2.871931
 ------------------------------------------------------------------------------
 One-electron integrals computed using PRISM.
   1 Symmetry operations used in ECPInt.
 ECPInt:  NShTT=    3160 NPrTT=   11805 LenC2=    3042 LenP2D=    8523.
 LDataN:  DoStor=T MaxTD1= 4 Len=   56
 NBasis=   233 RedAO= T EigKep=  1.18D-05  NBF=   233
 NBsUse=   233 1.00D-06 EigRej= -1.00D+00 NBFU=   233
 ExpMin= 3.15D-02 ExpMax= 1.14D+04 ExpMxC= 1.72D+03 IAcc=3 IRadAn=         5 AccDes= 0.00D+00
 Harris functional with IExCor= 4639 and IRadAn=       5 diagonalized for initial guess.
 HarFok:  IExCor= 4639 AccDes= 0.00D+00 IRadAn=         5 IDoV= 1 UseB2=F ITyADJ=14
 ICtDFT=  3500011 ScaDFX=  1.000000  1.000000  1.000000  1.000000
 FoFCou: FMM=F IPFlag=           0 FMFlag=      100000 FMFlg1=           0
         NFxFlg=           0 DoJE=T BraDBF=F KetDBF=T FulRan=T
         wScrn=  0.000000 ICntrl=       500 IOpCl=  0 I1Cent=   200000004 NGrid=           0
         NMat0=    1 NMatS0=      1 NMatT0=    0 NMatD0=    1 NMtDS0=    0 NMtDT0=    0
 Symmetry not used in FoFCou.
 Requested convergence on RMS density matrix=1.00D-08 within 300 cycles.
 Requested convergence on MAX density matrix=1.00D-06.
 Requested convergence on             energy=1.00D-06.
 No special actions if energy rises.
 Inv3:  Mode=1 IEnd=     5754675.
 Iteration    1 A*A^-1 deviation from unit magnitude is 4.88D-15 for   1372.
 Iteration    1 A*A^-1 deviation from orthogonality  is 2.21D-15 for   1040    873.
 Iteration    1 A^-1*A deviation from unit magnitude is 4.88D-15 for   1372.
 Iteration    1 A^-1*A deviation from orthogonality  is 1.85D-15 for   1106    340.
 Error on total polarization charges =  0.00724
 SCF Done:  E(RwB97XD) =  -489.594369368     A.U. after   14 cycles
            NFock= 14  Conv=0.53D-08     -V/T= 2.0033

 **********************************************************************

            Population analysis using the SCF Density.

 **********************************************************************

 Alpha  occ. eigenvalues --  -24.81611 -24.81420 -14.51339 -14.42874 -10.35035
 Alpha  occ. eigenvalues --  -10.34250 -10.33372 -10.29876  -6.95218  -1.33683
 Alpha  occ. eigenvalues --   -1.30677  -1.14541  -1.00576  -0.87217  -0.82971
 Alpha  occ. eigenvalues --   -0.72103  -0.68778  -0.66715  -0.64151  -0.61792
 Alpha  occ. eigenvalues --   -0.58433  -0.57538  -0.57465  -0.54315  -0.53144
 Alpha  occ. eigenvalues --   -0.52220  -0.51061  -0.50214  -0.50174  -0.46268
 Alpha  occ. eigenvalues --   -0.37224  -0.37195  -0.33222
 Alpha virt. eigenvalues --    0.03608   0.03730   0.05356   0.05949   0.06048
 Alpha virt. eigenvalues --    0.07664   0.08182   0.08957   0.09109   0.09865
 Alpha virt. eigenvalues --    0.10546   0.11551   0.12800   0.14776   0.15351
 Alpha virt. eigenvalues --    0.15890   0.16295   0.16757   0.17431   0.17976
 Alpha virt. eigenvalues --    0.18209   0.18943   0.19554   0.20170   0.21294
 Alpha virt. eigenvalues --    0.21508   0.22465   0.22686   0.24485   0.24600
 Alpha virt. eigenvalues --    0.27207   0.27694   0.29271   0.29505   0.30184
 Alpha virt. eigenvalues --    0.31330   0.31676   0.32632   0.34093   0.34593
 Alpha virt. eigenvalues --    0.34983   0.36408   0.37079   0.38021   0.38053
 Alpha virt. eigenvalues --    0.38356   0.39296   0.40052   0.40761   0.42698
 Alpha virt. eigenvalues --    0.46247   0.48025   0.48458   0.50255   0.50622
 Alpha virt. eigenvalues --    0.52345   0.53998   0.54144   0.56242   0.58791
 Alpha virt. eigenvalues --    0.60665   0.63098   0.65189   0.65945   0.66088
 Alpha virt. eigenvalues --    0.68325   0.69743   0.70316   0.71766   0.72295
 Alpha virt. eigenvalues --    0.72569   0.75168   0.76724   0.81925   0.83996
 Alpha virt. eigenvalues --    0.85539   0.87350   0.91332   0.92422   0.94469
 Alpha virt. eigenvalues --    0.96318   0.96974   0.99178   1.01630   1.02114
 Alpha virt. eigenvalues --    1.02234   1.07119   1.08832   1.09782   1.10455
 Alpha virt. eigenvalues --    1.16046   1.21584   1.23523   1.24007   1.32275
 Alpha virt. eigenvalues --    1.32955   1.34818   1.35942   1.39364   1.41551
 Alpha virt. eigenvalues --    1.44000   1.44985   1.47324   1.47500   1.49607
 Alpha virt. eigenvalues --    1.50587   1.50944   1.55965   1.60823   1.61256
 Alpha virt. eigenvalues --    1.64041   1.64209   1.70074   1.72030   1.74361
 Alpha virt. eigenvalues --    1.75002   1.78442   1.78816   1.81128   1.86239
 Alpha virt. eigenvalues --    1.90395   1.90801   1.97742   1.98431   2.03951
 Alpha virt. eigenvalues --    2.05609   2.08827   2.11979   2.17402   2.18643
 Alpha virt. eigenvalues --    2.19506   2.22581   2.25635   2.31635   2.33984
 Alpha virt. eigenvalues --    2.46167   2.47506   2.49979   2.53845   2.54161
 Alpha virt. eigenvalues --    2.56347   2.58829   2.59587   2.61456   2.66708
 Alpha virt. eigenvalues --    2.67773   2.72201   2.74225   2.78923   2.81687
 Alpha virt. eigenvalues --    2.87173   2.89289   2.91630   2.99291   3.01729
 Alpha virt. eigenvalues --    3.04774   3.07413   3.07916   3.20841   3.23494
 Alpha virt. eigenvalues --    3.49483   3.60531   3.68884   3.72592   3.81991
 Alpha virt. eigenvalues --    3.83465   3.84990   3.86193   3.87115   3.88103
 Alpha virt. eigenvalues --    3.92497   3.98182   4.02178   4.03654   4.06950
 Alpha virt. eigenvalues --    4.07039   4.10280   4.11352   4.39262   4.58831
 Alpha virt. eigenvalues --    4.61856   4.68120   4.89372   5.07891   5.37109
 Alpha virt. eigenvalues --    6.38766   6.40557   6.41580   6.51315   6.53167
 Alpha virt. eigenvalues --    6.75586  14.76347  23.91780  24.04630  24.07363
 Alpha virt. eigenvalues --   24.24270  35.62911  35.82276  66.93830  66.95234
          Condensed to atoms (all electrons):
               1          2          3          4          5          6
     1  C    7.099034   0.466640  -0.937510   0.135244  -0.052905  -0.237875
     2  H    0.466640   0.439625  -0.071533  -0.069814   0.001523  -0.018771
     3  C   -0.937510  -0.071533   6.796136  -0.062534   0.370063   0.704137
     4  N    0.135244  -0.069814  -0.062534   6.746633  -0.006540   0.028031
     5  N   -0.052905   0.001523   0.370063  -0.006540   6.628932  -0.109402
     6  B   -0.237875  -0.018771   0.704137   0.028031  -0.109402   3.522233
     7  C   -0.133710  -0.009990   0.015289   0.225607   0.019854   0.005655
     8  H    0.016160   0.000645  -0.020521  -0.058493   0.003784  -0.000086
     9  H   -0.012247  -0.001610   0.010483  -0.032717   0.000298  -0.000058
    10  H   -0.009584  -0.002196   0.010446  -0.034632   0.000114  -0.000065
    11  C   -0.254932   0.029329  -0.179793   0.206789   0.341408  -0.009402
    12  H    0.002629   0.003185   0.012589  -0.096421  -0.049057  -0.004539
    13  F    0.072433   0.001566  -0.064776   0.000371   0.024834   0.359329
    14  F    0.012803   0.002511  -0.039461   0.000401   0.004442   0.385716
               7          8          9         10         11         12
     1  C   -0.133710   0.016160  -0.012247  -0.009584  -0.254932   0.002629
     2  H   -0.009990   0.000645  -0.001610  -0.002196   0.029329   0.003185
     3  C    0.015289  -0.020521   0.010483   0.010446  -0.179793   0.012589
     4  N    0.225607  -0.058493  -0.032717  -0.034632   0.206789  -0.096421
     5  N    0.019854   0.003784   0.000298   0.000114   0.341408  -0.049057
     6  B    0.005655  -0.000086  -0.000058  -0.000065  -0.009402  -0.004539
     7  C    5.135644   0.419988   0.402031   0.407887  -0.076198  -0.013483
     8  H    0.419988   0.517315  -0.027422  -0.026899   0.015371  -0.001791
     9  H    0.402031  -0.027422   0.516820  -0.049759  -0.014698  -0.000632
    10  H    0.407887  -0.026899  -0.049759   0.516608  -0.014401  -0.000743
    11  C   -0.076198   0.015371  -0.014698  -0.014401   5.564363   0.448285
    12  H   -0.013483  -0.001791  -0.000632  -0.000743   0.448285   0.463881
    13  F    0.000543   0.000076   0.000027   0.000032  -0.006529  -0.000758
    14  F    0.001099   0.000011  -0.000146  -0.000123   0.013612   0.000373
              13         14
     1  C    0.072433   0.012803
     2  H    0.001566   0.002511
     3  C   -0.064776  -0.039461
     4  N    0.000371   0.000401
     5  N    0.024834   0.004442
     6  B    0.359329   0.385716
     7  C    0.000543   0.001099
     8  H    0.000076   0.000011
     9  H    0.000027  -0.000146
    10  H    0.000032  -0.000123
    11  C   -0.006529   0.013612
    12  H   -0.000758   0.000373
    13  F    8.703781  -0.054786
    14  F   -0.054786   8.720797
 Mulliken charges:
               1
     1  C   -0.166180
     2  H    0.228890
     3  C   -0.543014
     4  N    0.018075
     5  N   -0.177349
     6  B    0.375098
     7  C   -0.400215
     8  H    0.161862
     9  H    0.209630
    10  H    0.203315
    11  C   -0.063204
    12  H    0.236483
    13  F   -0.036141
    14  F   -0.047250
 Sum of Mulliken charges =  -0.00000
 Mulliken charges with hydrogens summed into heavy atoms:
               1
     1  C    0.062711
     3  C   -0.543014
     4  N    0.018075
     5  N   -0.177349
     6  B    0.375098
     7  C    0.174592
    11  C    0.173279
    13  F   -0.036141
    14  F   -0.047250
 Electronic spatial extent (au):  <R**2>=           3670.5116
 Charge=             -0.0000 electrons
 Dipole moment (field-independent basis, Debye):
    X=             -3.6635    Y=              6.2877    Z=             -0.5478  Tot=              7.2977
 Quadrupole moment (field-independent basis, Debye-Ang):
   XX=            -70.0325   YY=            -37.8677   ZZ=            -52.1653
   XY=             13.0622   XZ=             -2.4431   YZ=              0.2298
 Traceless Quadrupole moment (field-independent basis, Debye-Ang):
   XX=            -16.6774   YY=             15.4875   ZZ=              1.1899
   XY=             13.0622   XZ=             -2.4431   YZ=              0.2298
 Octapole moment (field-independent basis, Debye-Ang**2):
  XXX=           -523.3830  YYY=            -71.5439  ZZZ=           -105.1963  XYY=           -136.5826
  XXY=             -3.7844  XXZ=            -43.7814  XZZ=           -166.0524  YZZ=            -30.0470
  YYZ=            -27.6112  XYZ=              5.8734
 Hexadecapole moment (field-independent basis, Debye-Ang**3):
 XXXX=          -3273.3729 YYYY=           -782.0378 ZZZZ=           -597.5322 XXXY=              1.1917
 XXXZ=           -467.1176 YYYX=            -41.6469 YYYZ=             58.1199 ZZZX=           -458.3584
 ZZZY=             51.6248 XXYY=           -668.2941 XXZZ=           -690.4898 YYZZ=           -228.0923
 XXYZ=             49.2299 YYXZ=           -123.9815 ZZXY=            -17.6449
 N-N= 4.168802668526D+02 E-N=-1.985251586952D+03  KE= 4.879630919629D+02
 Breneman (CHELPG) radii used.
 Generate Potential Derived Charges using the Breneman model, NDens= 1.
 Grid spacing= 0.300 Box extension= 2.800
 NStep X,Y,Z=   34     40     36   Total possible points=       48960
 Number of Points to Fit=   10593

 **********************************************************************

            Electrostatic Properties Using The SCF Density.

 **********************************************************************

       Atomic Center    1 is at   2.646787  1.591008  1.089789
       Atomic Center    2 is at   2.661659  2.120720  2.029329
       Atomic Center    3 is at   3.191780  0.381566  0.714802
       Atomic Center    4 is at   2.015375  2.087132 -0.006907
       Atomic Center    5 is at   2.889546  0.140968 -0.617006
       Atomic Center    6 is at   4.004635 -0.568905  1.592941
       Atomic Center    7 is at   1.283577  3.338984 -0.097011
       Atomic Center    8 is at   0.942222  3.472339 -1.122556
       Atomic Center    9 is at   0.417467  3.320421  0.565618
       Atomic Center   10 is at   1.931946  4.173669  0.171022
       Atomic Center   11 is at   2.193347  1.171800 -1.006199
       Atomic Center   12 is at   1.784288  1.327606 -1.994330
       Atomic Center   13 is at   4.497691 -1.721582  1.154592
       Atomic Center   14 is at   4.259278 -0.271559  2.871931
   10593 points will be used for fitting atomic charges
 Fitting point charges to electrostatic potential
 Charges from ESP fit, RMS=   0.00365 RRMS=   0.13406:
 ESP charges:
               1
     1  C   -0.274916
     2  H    0.187550
     3  C    0.003293
     4  N    0.200282
     5  N   -0.601444
     6  B    0.791373
     7  C   -0.372450
     8  H    0.133505
     9  H    0.155982
    10  H    0.157072
    11  C    0.227108
    12  H    0.091817
    13  F   -0.332694
    14  F   -0.366478
 Sum of ESP charges =   0.00000
 ESP charges with hydrogens summed into heavy atoms:
               1
     1  C   -0.087366
     3  C    0.003293
     4  N    0.200282
     5  N   -0.601444
     6  B    0.791373
     7  C    0.074110
    11  C    0.318924
    13  F   -0.332694
    14  F   -0.366478
 Charge=   0.00000 Dipole=    -3.6604     6.2364    -0.6399 Tot=     7.2595
 -----------------------------------------------------------------

              Electrostatic Properties (Atomic Units)

 -----------------------------------------------------------------
    Center     Electric         -------- Electric Field --------
               Potential          X             Y             Z
 -----------------------------------------------------------------
    1 Atom    -14.724184
    2 Atom     -1.052625
    3 Atom    -14.768410
    4 Atom    -18.304364
    5 Atom    -18.418742
    6 Atom    -11.366607
    7 Atom    -14.695567
    8 Atom     -1.056323
    9 Atom     -1.063811
   10 Atom     -1.062839
   11 Atom    -14.710353
   12 Atom     -1.060851
   13 Atom    -26.609545
   14 Atom    -26.601176
 -----------------------------------------------------------------
 Unable to Open any file for archive entry.
 1\1\GINC-IRENE5307\SP\RwB97XD\GenECP\C4H5B1F2N2\PENASFRA\10-Apr-2024\0
 \\# wb97xd/genecp scrf=(solvent=toluene,pcm) nosymm pop=(chelpg) scfcy
 c=300\\f_nmeimidazole_chelpg\\0,1\C,0,2.646787,1.591008,1.089789\H,0,2
 .661659,2.12072,2.029329\C,0,3.19178,0.381566,0.714802\N,0,2.015375,2.
 087132,-0.006907\N,0,2.889546,0.140968,-0.617006\B,0,4.004635,-0.56890
 5,1.592941\C,0,1.283577,3.338984,-0.097011\H,0,0.942222,3.472339,-1.12
 2556\H,0,0.417467,3.320421,0.565618\H,0,1.931946,4.173669,0.171022\C,0
 ,2.193347,1.1718,-1.006199\H,0,1.784288,1.327606,-1.99433\F,0,4.497691
 ,-1.721582,1.154592\F,0,4.259278,-0.271559,2.871931\\Version=AS64L-G16
 RevC.02\HF=-489.5943694\RMSD=5.313e-09\Dipole=-1.4413161,2.4737669,-0.
 2155059\Quadrupole=-12.3992106,11.5145793,0.8846314,9.7114053,-1.81638
 2,0.1708812\PG=C01 [X(C4H5B1F2N2)]\\@
 The archive entry for this job was punched.


 PICNIC:  A SNACK IN THE GRASS.
 Job cpu time:       0 days  0 hours 19 minutes 51.0 seconds.
 Elapsed time:       0 days  0 hours  0 minutes 12.2 seconds.
 File lengths (MBytes):  RWF=     66 Int=      0 D2E=      0 Chk=      5 Scr=      1
 Normal termination of Gaussian 16 at Wed Apr 10 15:51:43 2024.
