 Entering Gaussian System, Link 0=/ccc/products/gaussian-16-C.02/system/default/g16/g16
 Input=f_quinoline_chelpg.gjf
 Output=f_quinoline_chelpg.log
 Initial command:
 /ccc/products/gaussian-16-C.02/system/default/g16/l1.exe "/ccc/scratch/cont003/gen7343/penasfra/flp/b-n_flp/f_quinoline/reac/Gau-431616.inp" -scrdir="/ccc/scratch/cont003/gen7343/penasfra/flp/b-n_flp/f_quinoline/reac/"
 Entering Link 1 = /ccc/products/gaussian-16-C.02/system/default/g16/l1.exe PID=    431665.
  
 Copyright (c) 1988-2021, Gaussian, Inc.  All Rights Reserved.
  
 This is part of the Gaussian(R) 16 program.  It is based on
 the Gaussian(R) 09 system (copyright 2009, Gaussian, Inc.),
 the Gaussian(R) 03 system (copyright 2003, Gaussian, Inc.),
 the Gaussian(R) 98 system (copyright 1998, Gaussian, Inc.),
 the Gaussian(R) 94 system (copyright 1995, Gaussian, Inc.),
 the Gaussian 92(TM) system (copyright 1992, Gaussian, Inc.),
 the Gaussian 90(TM) system (copyright 1990, Gaussian, Inc.),
 the Gaussian 88(TM) system (copyright 1988, Gaussian, Inc.),
 the Gaussian 86(TM) system (copyright 1986, Carnegie Mellon
 University), and the Gaussian 82(TM) system (copyright 1983,
 Carnegie Mellon University). Gaussian is a federally registered
 trademark of Gaussian, Inc.
  
 This software contains proprietary and confidential information,
 including trade secrets, belonging to Gaussian, Inc.
  
 This software is provided under written license and may be
 used, copied, transmitted, or stored only in accord with that
 written license.
  
 The following legend is applicable only to US Government
 contracts under FAR:
  
                    RESTRICTED RIGHTS LEGEND
  
 Use, reproduction and disclosure by the US Government is
 subject to restrictions as set forth in subparagraphs (a)
 and (c) of the Commercial Computer Software - Restricted
 Rights clause in FAR 52.227-19.
  
 Gaussian, Inc.
 340 Quinnipiac St., Bldg. 40, Wallingford CT 06492
  
  
 ---------------------------------------------------------------
 Warning -- This program may not be used in any manner that
 competes with the business of Gaussian, Inc. or will provide
 assistance to any competitor of Gaussian, Inc.  The licensee
 of this program is prohibited from giving any competitor of
 Gaussian, Inc. access to this program.  By using this program,
 the user acknowledges that Gaussian, Inc. is engaged in the
 business of creating and licensing software in the field of
 computational chemistry and represents and warrants to the
 licensee that it is not a competitor of Gaussian, Inc. and that
 it will not use this program in any manner prohibited above.
 ---------------------------------------------------------------
  

 Cite this work as:
 Gaussian 16, Revision C.02,
 M. J. Frisch, G. W. Trucks, H. B. Schlegel, G. E. Scuseria, 
 M. A. Robb, J. R. Cheeseman, G. Scalmani, V. Barone, 
 G. A. Petersson, H. Nakatsuji, X. Li, M. Caricato, A. V. Marenich, 
 J. Bloino, B. G. Janesko, R. Gomperts, B. Mennucci, H. P. Hratchian, 
 J. V. Ortiz, A. F. Izmaylov, J. L. Sonnenberg, D. Williams-Young, 
 F. Ding, F. Lipparini, F. Egidi, J. Goings, B. Peng, A. Petrone, 
 T. Henderson, D. Ranasinghe, V. G. Zakrzewski, J. Gao, N. Rega, 
 G. Zheng, W. Liang, M. Hada, M. Ehara, K. Toyota, R. Fukuda, 
 J. Hasegawa, M. Ishida, T. Nakajima, Y. Honda, O. Kitao, H. Nakai, 
 T. Vreven, K. Throssell, J. A. Montgomery, Jr., J. E. Peralta, 
 F. Ogliaro, M. J. Bearpark, J. J. Heyd, E. N. Brothers, K. N. Kudin, 
 V. N. Staroverov, T. A. Keith, R. Kobayashi, J. Normand, 
 K. Raghavachari, A. P. Rendell, J. C. Burant, S. S. Iyengar, 
 J. Tomasi, M. Cossi, J. M. Millam, M. Klene, C. Adamo, R. Cammi, 
 J. W. Ochterski, R. L. Martin, K. Morokuma, O. Farkas, 
 J. B. Foresman, and D. J. Fox, Gaussian, Inc., Wallingford CT, 2019.
 
 ******************************************
 Gaussian 16:  AS64L-G16RevC.02  7-Dec-2021
                10-Apr-2024 
 ******************************************
 %nprocshared=128
 Will use up to  128 processors via shared memory.
 %mem=30GB
 %chk=f_quinoline_chelpg.chk
 ----------------------------------------------------------------------
 # wb97xd/genecp scrf=(solvent=toluene,pcm) nosymm pop=(chelpg) scfcyc=
 300
 ----------------------------------------------------------------------
 1/38=1,172=1/1;
 2/12=2,15=1,17=6,18=5,40=1/2;
 3/5=7,11=2,16=1,17=8,25=1,30=1,70=2201,72=13,74=-58/1,2,3;
 4//1;
 5/5=2,7=300,38=5,53=13/2;
 6/7=2,8=2,9=2,10=2,15=8,20=3,28=1/1,2;
 99/5=1,9=1/99;
 ------------------
 f_quinoline_chelpg
 ------------------
 Symbolic Z-matrix:
 Charge =  0 Multiplicity = 1
 C                    -3.98869   0.04521   0.20298 
 C                    -2.61824   0.06737   0.02834 
 C                    -1.96258   1.33681  -0.07178 
 C                    -2.73475   2.52568   0.01987 
 C                    -4.1367    2.44236   0.20489 
 C                    -4.75387   1.22565   0.29342 
 H                    -4.49692  -0.90974   0.27626 
 C                    -2.06302   3.7669   -0.08136 
 H                    -4.71061   3.36104   0.27304 
 H                    -5.82637   1.16164   0.43304 
 C                    -0.70998   3.78101  -0.26501 
 C                    -0.03252   2.54409  -0.34867 
 H                    -2.63227   4.68826  -0.01244 
 H                    -0.15613   4.70786  -0.34796 
 H                     1.04439   2.53342  -0.49822 
 N                    -0.61583   1.37465  -0.25849 
 B                    -1.88658  -1.29968  -0.03482 
 F                    -0.57883  -1.48819  -0.09663 
 F                    -2.61407  -2.42441  -0.01072 
 
                          Input orientation:                          
 ---------------------------------------------------------------------
 Center     Atomic      Atomic             Coordinates (Angstroms)
 Number     Number       Type             X           Y           Z
 ---------------------------------------------------------------------
      1          6           0       -3.988688    0.045207    0.202982
      2          6           0       -2.618244    0.067367    0.028339
      3          6           0       -1.962582    1.336809   -0.071784
      4          6           0       -2.734747    2.525676    0.019868
      5          6           0       -4.136699    2.442358    0.204887
      6          6           0       -4.753870    1.225646    0.293424
      7          1           0       -4.496918   -0.909741    0.276258
      8          6           0       -2.063016    3.766895   -0.081361
      9          1           0       -4.710608    3.361035    0.273038
     10          1           0       -5.826374    1.161642    0.433038
     11          6           0       -0.709976    3.781007   -0.265011
     12          6           0       -0.032516    2.544094   -0.348674
     13          1           0       -2.632273    4.688256   -0.012436
     14          1           0       -0.156128    4.707863   -0.347959
     15          1           0        1.044386    2.533421   -0.498221
     16          7           0       -0.615834    1.374651   -0.258492
     17          5           0       -1.886583   -1.299683   -0.034820
     18          9           0       -0.578828   -1.488193   -0.096632
     19          9           0       -2.614068   -2.424405   -0.010719
 ---------------------------------------------------------------------
                    Distance matrix (angstroms):
                    1          2          3          4          5
     1  C    0.000000
     2  C    1.381705   0.000000
     3  C    2.418437   1.432271   0.000000
     4  C    2.785431   2.461083   1.420579   0.000000
     5  C    2.401717   2.824439   2.454704   1.416560   0.000000
     6  C    1.409652   2.443927   2.817272   2.416975   1.367160
     7  H    1.084248   2.132046   3.404553   3.869505   3.372154
     8  C    4.200003   3.742569   2.432179   1.414954   2.477195
     9  H    3.394229   3.909746   3.430458   2.160080   1.085349
    10  H    2.162508   3.413696   3.900566   3.404329   2.132437
    11  C    4.992512   4.185530   2.753264   2.399314   3.708802
    12  C    4.711694   3.600320   2.293329   2.727309   4.142596
    13  H    4.841918   4.621090   3.418217   2.165247   2.711934
    14  H    6.060727   5.266671   3.834521   3.398016   4.613361
    15  H    5.658156   4.446746   3.264289   3.814488   5.229369
    16  N    3.654658   2.408508   1.360155   2.427372   3.708262
    17  B    2.506816   1.551819   2.637846   3.918641   4.373026
    18  F    3.750764   2.567996   3.145795   4.557708   5.310235
    19  F    2.834472   2.492082   3.817708   4.951646   5.103947
                    6          7          8          9         10
     6  C    0.000000
     7  H    2.150860   0.000000
     8  C    3.720095   5.284193   0.000000
     9  H    2.135924   4.276120   2.701863   0.000000
    10  H    1.083445   2.466305   4.605954   2.471409   0.000000
    11  C    4.816098   6.052852   1.365520   4.058439   5.790153
    12  C    4.943863   5.678944   2.385294   4.789412   6.007582
    13  H    4.072394   5.907437   1.085224   2.482436   4.778884
    14  H    5.803140   7.126681   2.143063   4.789872   6.733300
    15  H    5.996395   6.569721   3.369151   5.865129   7.067982
    16  N    4.177338   4.535109   2.801525   4.582076   5.260543
    17  B    3.834888   2.657569   5.069863   5.458222   4.668936
    18  F    4.994801   3.978075   5.460677   6.381479   5.902450
    19  F    4.241949   2.433452   6.216176   6.160139   4.834828
                   11         12         13         14         15
    11  C    0.000000
    12  C    1.412765   0.000000
    13  H    2.140589   3.386624   0.000000
    14  H    1.082908   2.167297   2.498851   0.000000
    15  H    2.165328   1.087288   4.289187   2.488375   0.000000
    16  N    2.408206   1.309958   3.886714   3.365952   2.038761
    17  B    5.220230   4.279099   6.034233   6.259644   4.847474
    18  F    5.273521   4.076925   6.509397   6.215541   4.355396
    19  F    6.495950   5.609332   7.112685   7.551453   6.180775
                   16         17         18         19
    16  N    0.000000
    17  B    2.969326   0.000000
    18  F    2.867655   1.322717   0.000000
    19  F    4.299669   1.339707   2.241891   0.000000
 Symmetry turned off by external request.
 Stoichiometry    C9H6BF2N
 Framework group  C1[X(C9H6BF2N)]
 Deg. of freedom    51
 Full point group                 C1      NOp   1
 Rotational constants (GHZ):           1.3187863           0.6913389           0.4538372
 General basis read from cards:  (5D, 7F)
 ======================================================================================================
                                       Pseudopotential Parameters
 ======================================================================================================
  Center     Atomic      Valence      Angular      Power
  Number     Number     Electrons     Momentum     of R      Exponent        Coefficient   SO-Coeffient
 ======================================================================================================
    1          6
                                   No pseudopotential on this center.
    2          6
                                   No pseudopotential on this center.
    3          6
                                   No pseudopotential on this center.
    4          6
                                   No pseudopotential on this center.
    5          6
                                   No pseudopotential on this center.
    6          6
                                   No pseudopotential on this center.
    7          1
                                   No pseudopotential on this center.
    8          6
                                   No pseudopotential on this center.
    9          1
                                   No pseudopotential on this center.
   10          1
                                   No pseudopotential on this center.
   11          6
                                   No pseudopotential on this center.
   12          6
                                   No pseudopotential on this center.
   13          1
                                   No pseudopotential on this center.
   14          1
                                   No pseudopotential on this center.
   15          1
                                   No pseudopotential on this center.
   16          7
                                   No pseudopotential on this center.
   17          5
                                   No pseudopotential on this center.
   18          9
                                   No pseudopotential on this center.
   19          9
                                   No pseudopotential on this center.
 ======================================================================================================
   328 basis functions,   522 primitive gaussians,   341 cartesian basis functions
    45 alpha electrons       45 beta electrons
       nuclear repulsion energy       713.5881951877 Hartrees.
 NAtoms=   19 NActive=   19 NUniq=   19 SFac= 1.00D+00 NAtFMM=   60 NAOKFM=F Big=F
 Integral buffers will be    131072 words long.
 Raffenetti 2 integral format.
 Two-electron integral symmetry is turned off.
 Nuclear repulsion after empirical dispersion term =      713.5776689826 Hartrees.
 ------------------------------------------------------------------------------
 Polarizable Continuum Model (PCM)
 =================================
 Model                : PCM.
 Atomic radii         : UFF (Universal Force Field).
 Polarization charges : Total charges.
 Charge compensation  : None.
 Solution method      : On-the-fly selection.
 Cavity type          : Scaled VdW (van der Waals Surface) (Alpha=1.100).
 Cavity algorithm     : GePol (No added spheres)
                        Default sphere list used, NSphG=   19.
                        Lebedev-Laikov grids with approx.  5.0 points / Ang**2.
                        Smoothing algorithm: York/Karplus (Gamma=1.0000).
                        Polarization charges: spherical gaussians, with
                                              point-specific exponents (IZeta= 3).
                        Self-potential: point-specific (ISelfS= 7).
                        Self-field    : sphere-specific E.n sum rule (ISelfD= 2).
 Solvent              : Toluene, Eps=   2.374100 Eps(inf)=   2.238315
 ------------------------------------------------------------------------------
 Spheres list:
 ISph  on   Nord     Re0    Alpha      Xe            Ye            Ze
    1   C      1    1.9255  1.100     -3.988688      0.045207      0.202982
    2   C      2    1.9255  1.100     -2.618244      0.067367      0.028339
    3   C      3    1.9255  1.100     -1.962582      1.336809     -0.071784
    4   C      4    1.9255  1.100     -2.734747      2.525676      0.019868
    5   C      5    1.9255  1.100     -4.136699      2.442358      0.204887
    6   C      6    1.9255  1.100     -4.753870      1.225646      0.293424
    7   H      7    1.4430  1.100     -4.496918     -0.909741      0.276258
    8   C      8    1.9255  1.100     -2.063016      3.766895     -0.081361
    9   H      9    1.4430  1.100     -4.710608      3.361035      0.273038
   10   H     10    1.4430  1.100     -5.826374      1.161642      0.433038
   11   C     11    1.9255  1.100     -0.709976      3.781007     -0.265011
   12   C     12    1.9255  1.100     -0.032516      2.544094     -0.348674
   13   H     13    1.4430  1.100     -2.632273      4.688256     -0.012436
   14   H     14    1.4430  1.100     -0.156128      4.707863     -0.347959
   15   H     15    1.4430  1.100      1.044386      2.533421     -0.498221
   16   N     16    1.8300  1.100     -0.615834      1.374651     -0.258492
   17   B     17    2.0415  1.100     -1.886583     -1.299683     -0.034820
   18   F     18    1.6820  1.100     -0.578828     -1.488193     -0.096632
   19   F     19    1.6820  1.100     -2.614068     -2.424405     -0.010719
 ------------------------------------------------------------------------------
 One-electron integrals computed using PRISM.
   1 Symmetry operations used in ECPInt.
 ECPInt:  NShTT=    5886 NPrTT=   22618 LenC2=    5618 LenP2D=   15395.
 LDataN:  DoStor=T MaxTD1= 4 Len=   56
 NBasis=   328 RedAO= T EigKep=  1.12D-06  NBF=   328
 NBsUse=   327 1.00D-06 EigRej=  2.81D-07 NBFU=   327
 ExpMin= 3.15D-02 ExpMax= 1.14D+04 ExpMxC= 1.72D+03 IAcc=3 IRadAn=         5 AccDes= 0.00D+00
 Harris functional with IExCor= 4639 and IRadAn=       5 diagonalized for initial guess.
 HarFok:  IExCor= 4639 AccDes= 0.00D+00 IRadAn=         5 IDoV= 1 UseB2=F ITyADJ=14
 ICtDFT=  3500011 ScaDFX=  1.000000  1.000000  1.000000  1.000000
 FoFCou: FMM=F IPFlag=           0 FMFlag=      100000 FMFlg1=           0
         NFxFlg=           0 DoJE=T BraDBF=F KetDBF=T FulRan=T
         wScrn=  0.000000 ICntrl=       500 IOpCl=  0 I1Cent=   200000004 NGrid=           0
         NMat0=    1 NMatS0=      1 NMatT0=    0 NMatD0=    1 NMtDS0=    0 NMtDT0=    0
 Symmetry not used in FoFCou.
 Requested convergence on RMS density matrix=1.00D-08 within 300 cycles.
 Requested convergence on MAX density matrix=1.00D-06.
 Requested convergence on             energy=1.00D-06.
 No special actions if energy rises.
 Inv3:  Mode=1 IEnd=     9271692.
 Iteration    1 A*A^-1 deviation from unit magnitude is 5.00D-15 for   1746.
 Iteration    1 A*A^-1 deviation from orthogonality  is 1.84D-15 for   1528    438.
 Iteration    1 A^-1*A deviation from unit magnitude is 5.00D-15 for   1746.
 Iteration    1 A^-1*A deviation from orthogonality  is 1.95D-15 for   1724    457.
 Error on total polarization charges =  0.00762
 SCF Done:  E(RwB97XD) =  -625.956817011     A.U. after   16 cycles
            NFock= 16  Conv=0.74D-08     -V/T= 2.0036

 **********************************************************************

            Population analysis using the SCF Density.

 **********************************************************************

 Alpha  occ. eigenvalues --  -24.81636 -24.81441 -14.43857 -10.34365 -10.33548
 Alpha  occ. eigenvalues --  -10.31924 -10.31777 -10.31479 -10.31421 -10.30629
 Alpha  occ. eigenvalues --  -10.30583 -10.29553  -6.95728  -1.33878  -1.30689
 Alpha  occ. eigenvalues --   -1.06465  -0.97170  -0.92573  -0.86923  -0.86075
 Alpha  occ. eigenvalues --   -0.75545  -0.74271  -0.72089  -0.66937  -0.63949
 Alpha  occ. eigenvalues --   -0.62530  -0.62165  -0.60776  -0.57950  -0.57870
 Alpha  occ. eigenvalues --   -0.55868  -0.53155  -0.52276  -0.52048  -0.51752
 Alpha  occ. eigenvalues --   -0.50655  -0.50089  -0.49230  -0.44867  -0.44852
 Alpha  occ. eigenvalues --   -0.44032  -0.40639  -0.34938  -0.34170  -0.32804
 Alpha virt. eigenvalues --   -0.01876   0.02926   0.03719   0.03866   0.04620
 Alpha virt. eigenvalues --    0.05356   0.06557   0.06668   0.08129   0.08474
 Alpha virt. eigenvalues --    0.08766   0.09351   0.10484   0.11958   0.12284
 Alpha virt. eigenvalues --    0.12753   0.13021   0.14496   0.14657   0.14942
 Alpha virt. eigenvalues --    0.15536   0.16097   0.16537   0.16982   0.17614
 Alpha virt. eigenvalues --    0.17854   0.18080   0.18247   0.18768   0.19124
 Alpha virt. eigenvalues --    0.19966   0.20558   0.20778   0.21492   0.21994
 Alpha virt. eigenvalues --    0.22094   0.23581   0.23873   0.25121   0.26132
 Alpha virt. eigenvalues --    0.26273   0.26599   0.27476   0.28008   0.28428
 Alpha virt. eigenvalues --    0.28643   0.29139   0.29674   0.30547   0.31001
 Alpha virt. eigenvalues --    0.31348   0.32304   0.32453   0.33320   0.34159
 Alpha virt. eigenvalues --    0.34361   0.35063   0.35592   0.36045   0.36608
 Alpha virt. eigenvalues --    0.37270   0.37643   0.37677   0.38560   0.39853
 Alpha virt. eigenvalues --    0.40047   0.40548   0.41243   0.42366   0.42507
 Alpha virt. eigenvalues --    0.43928   0.45588   0.46509   0.46769   0.49836
 Alpha virt. eigenvalues --    0.51002   0.53746   0.54984   0.55860   0.56975
 Alpha virt. eigenvalues --    0.57840   0.59977   0.60629   0.60835   0.62380
 Alpha virt. eigenvalues --    0.62750   0.63622   0.64306   0.64516   0.66319
 Alpha virt. eigenvalues --    0.66819   0.67413   0.67784   0.68756   0.69615
 Alpha virt. eigenvalues --    0.70163   0.71342   0.71743   0.72842   0.74433
 Alpha virt. eigenvalues --    0.74879   0.77741   0.79622   0.80414   0.82090
 Alpha virt. eigenvalues --    0.83097   0.84914   0.85812   0.87428   0.89687
 Alpha virt. eigenvalues --    0.90329   0.91709   0.93120   0.94111   0.94902
 Alpha virt. eigenvalues --    0.95826   0.97746   0.98072   0.98734   0.99288
 Alpha virt. eigenvalues --    1.00057   1.01123   1.01444   1.02407   1.04641
 Alpha virt. eigenvalues --    1.05678   1.07348   1.07691   1.11275   1.11841
 Alpha virt. eigenvalues --    1.13199   1.13998   1.15817   1.16820   1.17675
 Alpha virt. eigenvalues --    1.20010   1.21722   1.23517   1.26512   1.31143
 Alpha virt. eigenvalues --    1.34898   1.35844   1.36747   1.38547   1.42190
 Alpha virt. eigenvalues --    1.42729   1.44618   1.45811   1.46684   1.51562
 Alpha virt. eigenvalues --    1.54075   1.54513   1.56556   1.58106   1.60126
 Alpha virt. eigenvalues --    1.61101   1.63090   1.64282   1.66070   1.66364
 Alpha virt. eigenvalues --    1.67602   1.69919   1.72359   1.74009   1.75633
 Alpha virt. eigenvalues --    1.77674   1.80059   1.80859   1.81505   1.83313
 Alpha virt. eigenvalues --    1.85577   1.88549   1.89806   1.92042   1.94163
 Alpha virt. eigenvalues --    1.97523   1.98264   1.98942   2.00377   2.00579
 Alpha virt. eigenvalues --    2.03276   2.03879   2.04507   2.06434   2.09081
 Alpha virt. eigenvalues --    2.10950   2.14631   2.16175   2.19295   2.21083
 Alpha virt. eigenvalues --    2.24108   2.25089   2.28331   2.30752   2.31621
 Alpha virt. eigenvalues --    2.37156   2.39006   2.50062   2.50671   2.52591
 Alpha virt. eigenvalues --    2.53726   2.56257   2.57604   2.62256   2.64639
 Alpha virt. eigenvalues --    2.66861   2.68037   2.75453   2.76852   2.78229
 Alpha virt. eigenvalues --    2.80009   2.81392   2.81888   2.82349   2.83271
 Alpha virt. eigenvalues --    2.84088   2.84450   2.86205   2.88076   2.90005
 Alpha virt. eigenvalues --    2.92119   2.93270   2.95161   2.99787   3.00853
 Alpha virt. eigenvalues --    3.03025   3.08256   3.11307   3.12698   3.17970
 Alpha virt. eigenvalues --    3.30891   3.35414   3.41781   3.44807   3.47461
 Alpha virt. eigenvalues --    3.50107   3.58079   3.60429   3.62988   3.67029
 Alpha virt. eigenvalues --    3.75151   3.82466   3.85046   3.87179   3.89116
 Alpha virt. eigenvalues --    3.89694   4.01269   4.04838   4.05518   4.07293
 Alpha virt. eigenvalues --    4.07752   4.10363   4.12608   4.15618   4.24275
 Alpha virt. eigenvalues --    4.28193   4.42246   4.55163   4.60551   4.67190
 Alpha virt. eigenvalues --    4.69820   4.92367   5.35717   6.39626   6.41016
 Alpha virt. eigenvalues --    6.46443   6.54241   6.55351   6.78284  14.77404
 Alpha virt. eigenvalues --   23.72183  23.96341  24.05028  24.07216  24.13345
 Alpha virt. eigenvalues --   24.14378  24.22293  24.29290  24.31222  35.83825
 Alpha virt. eigenvalues --   66.95829  66.96711
          Condensed to atoms (all electrons):
               1          2          3          4          5          6
     1  C   18.826461  -0.663267  -5.231072  -8.337324   1.155171  -1.760746
     2  C   -0.663267  16.250237  -1.642930  -6.165842   1.321511  -2.244354
     3  C   -5.231072  -1.642930  36.463771 -13.582760  -9.349107   0.716206
     4  C   -8.337324  -6.165842 -13.582760  42.142692  -1.023477   1.753248
     5  C    1.155171   1.321511  -9.349107  -1.023477  13.910676  -1.046579
     6  C   -1.760746  -2.244354   0.716206   1.753248  -1.046579   9.072273
     7  H    0.494791  -0.150309   0.076100   0.004736  -0.058340  -0.039589
     8  C    1.806269   0.244703   2.980735 -14.728219   0.515924  -0.725352
     9  H    0.033346   0.023654   0.034295  -0.075833   0.410138  -0.084460
    10  H   -0.107308   0.074485  -0.022436   0.070464  -0.070622   0.398707
    11  C   -0.587554  -0.509461  -1.505908   6.066552   0.166059  -0.107330
    12  C    0.338125   0.513950  -0.121726  -3.227436  -0.091334   0.104457
    13  H    0.003382  -0.016607   0.136228  -0.192924  -0.021529   0.025789
    14  H   -0.010407  -0.027060  -0.078741   0.104040   0.011804   0.006424
    15  H    0.005240   0.034697   0.013593  -0.053650  -0.017125   0.004563
    16  N    0.043876  -0.574984  -0.212565   0.923419   0.104500   0.033302
    17  B    0.102145   0.352473  -0.160902   0.030574   0.071575   0.055709
    18  F    0.321290   0.116990  -0.476292  -0.004253   0.006259   0.027997
    19  F   -0.306818  -0.007840   0.217963   0.062116   0.009277   0.061174
               7          8          9         10         11         12
     1  C    0.494791   1.806269   0.033346  -0.107308  -0.587554   0.338125
     2  C   -0.150309   0.244703   0.023654   0.074485  -0.509461   0.513950
     3  C    0.076100   2.980735   0.034295  -0.022436  -1.505908  -0.121726
     4  C    0.004736 -14.728219  -0.075833   0.070464   6.066552  -3.227436
     5  C   -0.058340   0.515924   0.410138  -0.070622   0.166059  -0.091334
     6  C   -0.039589  -0.725352  -0.084460   0.398707  -0.107330   0.104457
     7  H    0.466289   0.005426   0.001303  -0.006264   0.006058  -0.014057
     8  C    0.005426  18.914937  -0.017736  -0.018187  -5.227289   2.467682
     9  H    0.001303  -0.017736   0.448652  -0.008534   0.045481  -0.020494
    10  H   -0.006264  -0.018187  -0.008534   0.440607   0.004416   0.001518
    11  C    0.006058  -5.227289   0.045481   0.004416   9.809312  -2.258591
    12  C   -0.014057   2.467682  -0.020494   0.001518  -2.258591   7.769373
    13  H    0.000201   0.451589   0.004230   0.000124  -0.089627   0.049723
    14  H    0.000052  -0.022490   0.000064   0.000016   0.379427  -0.049465
    15  H   -0.000564  -0.000864  -0.000648   0.000104  -0.153449   0.548847
    16  N   -0.000530  -0.375008  -0.000863   0.000416   0.352050  -0.124912
    17  B   -0.033993  -0.036414   0.000733   0.000156  -0.000478   0.001885
    18  F    0.000441  -0.006363   0.000037  -0.000022  -0.001386   0.017129
    19  F    0.008791  -0.006938   0.000159   0.000577   0.003795  -0.007979
              13         14         15         16         17         18
     1  C    0.003382  -0.010407   0.005240   0.043876   0.102145   0.321290
     2  C   -0.016607  -0.027060   0.034697  -0.574984   0.352473   0.116990
     3  C    0.136228  -0.078741   0.013593  -0.212565  -0.160902  -0.476292
     4  C   -0.192924   0.104040  -0.053650   0.923419   0.030574  -0.004253
     5  C   -0.021529   0.011804  -0.017125   0.104500   0.071575   0.006259
     6  C    0.025789   0.006424   0.004563   0.033302   0.055709   0.027997
     7  H    0.000201   0.000052  -0.000564  -0.000530  -0.033993   0.000441
     8  C    0.451589  -0.022490  -0.000864  -0.375008  -0.036414  -0.006363
     9  H    0.004230   0.000064  -0.000648  -0.000863   0.000733   0.000037
    10  H    0.000124   0.000016   0.000104   0.000416   0.000156  -0.000022
    11  C   -0.089627   0.379427  -0.153449   0.352050  -0.000478  -0.001386
    12  C    0.049723  -0.049465   0.548847  -0.124912   0.001885   0.017129
    13  H    0.429856  -0.003581   0.001634  -0.006230   0.000199  -0.000072
    14  H   -0.003581   0.423345  -0.001605   0.016936  -0.000219   0.000044
    15  H    0.001634  -0.001605   0.483094  -0.119814  -0.001454   0.001525
    16  N   -0.006230   0.016936  -0.119814   6.828862   0.021723   0.005148
    17  B    0.000199  -0.000219  -0.001454   0.021723   3.460716   0.404815
    18  F   -0.000072   0.000044   0.001525   0.005148   0.404815   8.698578
    19  F   -0.000097   0.000025  -0.000093  -0.006208   0.357120  -0.089764
              19
     1  C   -0.306818
     2  C   -0.007840
     3  C    0.217963
     4  C    0.062116
     5  C    0.009277
     6  C    0.061174
     7  H    0.008791
     8  C   -0.006938
     9  H    0.000159
    10  H    0.000577
    11  C    0.003795
    12  C   -0.007979
    13  H   -0.000097
    14  H    0.000025
    15  H   -0.000093
    16  N   -0.006208
    17  B    0.357120
    18  F   -0.089764
    19  F    8.726318
 Mulliken charges:
               1
     1  C   -0.125599
     2  C   -0.930047
     3  C   -2.254453
     4  C    2.233877
     5  C   -0.004782
     6  C   -0.251440
     7  H    0.239458
     8  C   -0.222407
     9  H    0.206476
    10  H    0.241783
    11  C   -0.392078
    12  C    0.103305
    13  H    0.227711
    14  H    0.251390
    15  H    0.255968
    16  N    0.090881
    17  B    0.373637
    18  F   -0.022102
    19  F   -0.021578
 Sum of Mulliken charges =  -0.00000
 Mulliken charges with hydrogens summed into heavy atoms:
               1
     1  C    0.113859
     2  C   -0.930047
     3  C   -2.254453
     4  C    2.233877
     5  C    0.201694
     6  C   -0.009656
     8  C    0.005304
    11  C   -0.140688
    12  C    0.359272
    16  N    0.090881
    17  B    0.373637
    18  F   -0.022102
    19  F   -0.021578
 Electronic spatial extent (au):  <R**2>=           4091.7259
 Charge=              0.0000 electrons
 Dipole moment (field-independent basis, Debye):
    X=             -2.4482    Y=              4.7141    Z=              0.2574  Tot=              5.3182
 Quadrupole moment (field-independent basis, Debye-Ang):
   XX=            -55.3318   YY=            -59.2177   ZZ=            -74.6126
   XY=             -8.2432   XZ=             -1.9991   YZ=             -0.6101
 Traceless Quadrupole moment (field-independent basis, Debye-Ang):
   XX=              7.7222   YY=              3.8363   ZZ=            -11.5586
   XY=             -8.2432   XZ=             -1.9991   YZ=             -0.6101
 Octapole moment (field-independent basis, Debye-Ang**2):
  XXX=            392.6991  YYY=           -158.2260  ZZZ=              5.9797  XYY=            139.2748
  XXY=            -42.8757  XXZ=             11.6394  XZZ=            169.8030  YZZ=            -94.8814
  YYZ=              0.1469  XYZ=             -3.4451
 Hexadecapole moment (field-independent basis, Debye-Ang**3):
 XXXX=          -2680.6664 YYYY=          -1927.5086 ZZZZ=            -98.9233 XXXY=            323.0995
 XXXZ=            -11.7171 YYYX=            312.9457 YYYZ=             16.6562 ZZZX=             54.1019
 ZZZY=             29.6581 XXYY=           -792.9876 XXZZ=           -590.7743 YYZZ=           -419.8324
 XXYZ=             21.4281 YYXZ=              3.2895 ZZXY=            188.1574
 N-N= 7.135776689826D+02 E-N=-2.894356154160D+03  KE= 6.237198086191D+02
 Breneman (CHELPG) radii used.
 Generate Potential Derived Charges using the Breneman model, NDens= 1.
 Grid spacing= 0.300 Box extension= 2.800
 NStep X,Y,Z=   42     44     23   Total possible points=       42504
 Number of Points to Fit=   13056

 **********************************************************************

            Electrostatic Properties Using The SCF Density.

 **********************************************************************

       Atomic Center    1 is at  -3.988688  0.045207  0.202982
       Atomic Center    2 is at  -2.618244  0.067367  0.028339
       Atomic Center    3 is at  -1.962582  1.336809 -0.071784
       Atomic Center    4 is at  -2.734747  2.525676  0.019868
       Atomic Center    5 is at  -4.136699  2.442358  0.204887
       Atomic Center    6 is at  -4.753870  1.225646  0.293424
       Atomic Center    7 is at  -4.496918 -0.909741  0.276258
       Atomic Center    8 is at  -2.063016  3.766895 -0.081361
       Atomic Center    9 is at  -4.710608  3.361035  0.273038
       Atomic Center   10 is at  -5.826374  1.161642  0.433038
       Atomic Center   11 is at  -0.709976  3.781007 -0.265011
       Atomic Center   12 is at  -0.032516  2.544094 -0.348674
       Atomic Center   13 is at  -2.632273  4.688256 -0.012436
       Atomic Center   14 is at  -0.156128  4.707863 -0.347959
       Atomic Center   15 is at   1.044386  2.533421 -0.498221
       Atomic Center   16 is at  -0.615834  1.374651 -0.258492
       Atomic Center   17 is at  -1.886583 -1.299683 -0.034820
       Atomic Center   18 is at  -0.578828 -1.488193 -0.096632
       Atomic Center   19 is at  -2.614068 -2.424405 -0.010719
   13056 points will be used for fitting atomic charges
 Fitting point charges to electrostatic potential
 Charges from ESP fit, RMS=   0.00424 RRMS=   0.23258:
 ESP charges:
               1
     1  C    0.007139
     2  C   -0.501593
     3  C    0.549060
     4  C   -0.002763
     5  C   -0.151145
     6  C   -0.109588
     7  H    0.101206
     8  C   -0.066824
     9  H    0.126626
    10  H    0.111984
    11  C   -0.264775
    12  C    0.343190
    13  H    0.130013
    14  H    0.132200
    15  H    0.044834
    16  N   -0.635690
    17  B    0.938765
    18  F   -0.374589
    19  F   -0.378050
 Sum of ESP charges =   0.00000
 ESP charges with hydrogens summed into heavy atoms:
               1
     1  C    0.108345
     2  C   -0.501593
     3  C    0.549060
     4  C   -0.002763
     5  C   -0.024519
     6  C    0.002396
     8  C    0.063189
    11  C   -0.132575
    12  C    0.388024
    16  N   -0.635690
    17  B    0.938765
    18  F   -0.374589
    19  F   -0.378050
 Charge=   0.00000 Dipole=    -2.4925     4.8009     0.2572 Tot=     5.4154
 -----------------------------------------------------------------

              Electrostatic Properties (Atomic Units)

 -----------------------------------------------------------------
    Center     Electric         -------- Electric Field --------
               Potential          X             Y             Z
 -----------------------------------------------------------------
    1 Atom    -14.748789
    2 Atom    -14.770154
    3 Atom    -14.721167
    4 Atom    -14.742201
    5 Atom    -14.743343
    6 Atom    -14.752468
    7 Atom     -1.090803
    8 Atom    -14.738711
    9 Atom     -1.073967
   10 Atom     -1.082979
   11 Atom    -14.751885
   12 Atom    -14.728477
   13 Atom     -1.069704
   14 Atom     -1.077260
   15 Atom     -1.097045
   16 Atom    -18.405486
   17 Atom    -11.359418
   18 Atom    -26.607634
   19 Atom    -26.600066
 -----------------------------------------------------------------
 Unable to Open any file for archive entry.
 1\1\GINC-IRENE4088\SP\RwB97XD\GenECP\C9H6B1F2N1\PENASFRA\10-Apr-2024\0
 \\# wb97xd/genecp scrf=(solvent=toluene,pcm) nosymm pop=(chelpg) scfcy
 c=300\\f_quinoline_chelpg\\0,1\C,0,-3.988688,0.045207,0.202982\C,0,-2.
 618244,0.067367,0.028339\C,0,-1.962582,1.336809,-0.071784\C,0,-2.73474
 7,2.525676,0.019868\C,0,-4.136699,2.442358,0.204887\C,0,-4.75387,1.225
 646,0.293424\H,0,-4.496918,-0.909741,0.276258\C,0,-2.063016,3.766895,-
 0.081361\H,0,-4.710608,3.361035,0.273038\H,0,-5.826374,1.161642,0.4330
 38\C,0,-0.709976,3.781007,-0.265011\C,0,-0.032516,2.544094,-0.348674\H
 ,0,-2.632273,4.688256,-0.012436\H,0,-0.156128,4.707863,-0.347959\H,0,1
 .044386,2.533421,-0.498221\N,0,-0.615834,1.374651,-0.258492\B,0,-1.886
 583,-1.299683,-0.03482\F,0,-0.578828,-1.488193,-0.096632\F,0,-2.614068
 ,-2.424405,-0.010719\\Version=AS64L-G16RevC.02\HF=-625.956817\RMSD=7.4
 49e-09\Dipole=-0.9631993,1.8546861,0.1012699\Quadrupole=5.7412876,2.85
 22197,-8.5935074,-6.1286345,-1.4862454,-0.4535592\PG=C01 [X(C9H6B1F2N1
 )]\\@
 The archive entry for this job was punched.


 I WANT IT ALL - RICH, THIN, AND CHOCOLATE.
 Job cpu time:       0 days  0 hours 31 minutes 42.1 seconds.
 Elapsed time:       0 days  0 hours  0 minutes 20.2 seconds.
 File lengths (MBytes):  RWF=    113 Int=      0 D2E=      0 Chk=      8 Scr=      1
 Normal termination of Gaussian 16 at Wed Apr 10 16:13:53 2024.
