 Entering Gaussian System, Link 0=/ccc/products/gaussian-16-C.02/system/default/g16/g16
 Input=h_benzopiperidine_chelpg.gjf
 Output=h_benzopiperidine_chelpg.log
 Initial command:
 /ccc/products/gaussian-16-C.02/system/default/g16/l1.exe "/ccc/scratch/cont003/gen7343/penasfra/flp/b-n_flp/h_benzopiperidine/reac/Gau-1059537.inp" -scrdir="/ccc/scratch/cont003/gen7343/penasfra/flp/b-n_flp/h_benzopiperidine/reac/"
 Entering Link 1 = /ccc/products/gaussian-16-C.02/system/default/g16/l1.exe PID=   1059587.
  
 Copyright (c) 1988-2021, Gaussian, Inc.  All Rights Reserved.
  
 This is part of the Gaussian(R) 16 program.  It is based on
 the Gaussian(R) 09 system (copyright 2009, Gaussian, Inc.),
 the Gaussian(R) 03 system (copyright 2003, Gaussian, Inc.),
 the Gaussian(R) 98 system (copyright 1998, Gaussian, Inc.),
 the Gaussian(R) 94 system (copyright 1995, Gaussian, Inc.),
 the Gaussian 92(TM) system (copyright 1992, Gaussian, Inc.),
 the Gaussian 90(TM) system (copyright 1990, Gaussian, Inc.),
 the Gaussian 88(TM) system (copyright 1988, Gaussian, Inc.),
 the Gaussian 86(TM) system (copyright 1986, Carnegie Mellon
 University), and the Gaussian 82(TM) system (copyright 1983,
 Carnegie Mellon University). Gaussian is a federally registered
 trademark of Gaussian, Inc.
  
 This software contains proprietary and confidential information,
 including trade secrets, belonging to Gaussian, Inc.
  
 This software is provided under written license and may be
 used, copied, transmitted, or stored only in accord with that
 written license.
  
 The following legend is applicable only to US Government
 contracts under FAR:
  
                    RESTRICTED RIGHTS LEGEND
  
 Use, reproduction and disclosure by the US Government is
 subject to restrictions as set forth in subparagraphs (a)
 and (c) of the Commercial Computer Software - Restricted
 Rights clause in FAR 52.227-19.
  
 Gaussian, Inc.
 340 Quinnipiac St., Bldg. 40, Wallingford CT 06492
  
  
 ---------------------------------------------------------------
 Warning -- This program may not be used in any manner that
 competes with the business of Gaussian, Inc. or will provide
 assistance to any competitor of Gaussian, Inc.  The licensee
 of this program is prohibited from giving any competitor of
 Gaussian, Inc. access to this program.  By using this program,
 the user acknowledges that Gaussian, Inc. is engaged in the
 business of creating and licensing software in the field of
 computational chemistry and represents and warrants to the
 licensee that it is not a competitor of Gaussian, Inc. and that
 it will not use this program in any manner prohibited above.
 ---------------------------------------------------------------
  

 Cite this work as:
 Gaussian 16, Revision C.02,
 M. J. Frisch, G. W. Trucks, H. B. Schlegel, G. E. Scuseria, 
 M. A. Robb, J. R. Cheeseman, G. Scalmani, V. Barone, 
 G. A. Petersson, H. Nakatsuji, X. Li, M. Caricato, A. V. Marenich, 
 J. Bloino, B. G. Janesko, R. Gomperts, B. Mennucci, H. P. Hratchian, 
 J. V. Ortiz, A. F. Izmaylov, J. L. Sonnenberg, D. Williams-Young, 
 F. Ding, F. Lipparini, F. Egidi, J. Goings, B. Peng, A. Petrone, 
 T. Henderson, D. Ranasinghe, V. G. Zakrzewski, J. Gao, N. Rega, 
 G. Zheng, W. Liang, M. Hada, M. Ehara, K. Toyota, R. Fukuda, 
 J. Hasegawa, M. Ishida, T. Nakajima, Y. Honda, O. Kitao, H. Nakai, 
 T. Vreven, K. Throssell, J. A. Montgomery, Jr., J. E. Peralta, 
 F. Ogliaro, M. J. Bearpark, J. J. Heyd, E. N. Brothers, K. N. Kudin, 
 V. N. Staroverov, T. A. Keith, R. Kobayashi, J. Normand, 
 K. Raghavachari, A. P. Rendell, J. C. Burant, S. S. Iyengar, 
 J. Tomasi, M. Cossi, J. M. Millam, M. Klene, C. Adamo, R. Cammi, 
 J. W. Ochterski, R. L. Martin, K. Morokuma, O. Farkas, 
 J. B. Foresman, and D. J. Fox, Gaussian, Inc., Wallingford CT, 2019.
 
 ******************************************
 Gaussian 16:  AS64L-G16RevC.02  7-Dec-2021
                10-Apr-2024 
 ******************************************
 %nprocshared=128
 Will use up to  128 processors via shared memory.
 %mem=30GB
 %chk=h_benzopiperidine_chelpg.chk
 ----------------------------------------------------------------------
 # wb97xd/genecp scrf=(solvent=toluene,pcm) nosymm pop=(chelpg) scfcyc=
 300
 ----------------------------------------------------------------------
 1/38=1,172=1/1;
 2/12=2,15=1,17=6,18=5,40=1/2;
 3/5=7,11=2,16=1,17=8,25=1,30=1,70=2201,72=13,74=-58/1,2,3;
 4//1;
 5/5=2,7=300,38=5,53=13/2;
 6/7=2,8=2,9=2,10=2,15=8,20=3,28=1/1,2;
 99/5=1,9=1/99;
 ------------------------
 h_benzopiperidine_chelpg
 ------------------------
 Symbolic Z-matrix:
 Charge =  0 Multiplicity = 1
 C                    -0.59967   0.92998   0.67885 
 C                     0.7717    1.07827   0.81227 
 C                     1.46077   2.20478   0.32693 
 C                     0.69896   3.25653  -0.25957 
 C                    -0.68638   3.09408  -0.40078 
 C                    -1.31792   1.94476   0.05562 
 H                    -1.10163   0.04302   1.04678 
 H                     1.35104   0.28624   1.27677 
 H                    -1.2872    3.87889  -0.84177 
 H                    -2.39341   1.85519  -0.05844 
 B                     2.99135   2.11929   0.26755 
 C                     0.63578   5.29427  -1.62229 
 C                     2.10209   5.18001   0.30029 
 C                     1.62632   6.19718  -2.3549 
 C                     3.14503   6.06457  -0.36752 
 C                     2.48106   6.99998  -1.37661 
 H                     1.07262   6.86377  -3.02253 
 H                     2.27242   5.57005  -2.97872 
 H                     3.67722   6.63579   0.39869 
 H                     3.87617   5.42512  -0.87376 
 H                     3.23214   7.58453  -1.91482 
 H                     1.84403   7.71487  -0.8401 
 N                     1.33899   4.41965  -0.69383 
 H                     2.57273   4.49169   0.9994 
 H                     1.40773   5.81131   0.88435 
 H                    -0.1102    5.91749  -1.09612 
 H                     0.10147   4.67906  -2.3483 
 H                     3.6418    2.85801  -0.41047 
 H                     3.54709   1.24872   0.87549 
 
                          Input orientation:                          
 ---------------------------------------------------------------------
 Center     Atomic      Atomic             Coordinates (Angstroms)
 Number     Number       Type             X           Y           Z
 ---------------------------------------------------------------------
      1          6           0       -0.599670    0.929981    0.678852
      2          6           0        0.771699    1.078270    0.812265
      3          6           0        1.460772    2.204781    0.326931
      4          6           0        0.698960    3.256526   -0.259570
      5          6           0       -0.686382    3.094083   -0.400776
      6          6           0       -1.317916    1.944761    0.055615
      7          1           0       -1.101628    0.043024    1.046779
      8          1           0        1.351038    0.286239    1.276772
      9          1           0       -1.287199    3.878894   -0.841765
     10          1           0       -2.393409    1.855194   -0.058443
     11          5           0        2.991347    2.119285    0.267550
     12          6           0        0.635778    5.294268   -1.622287
     13          6           0        2.102094    5.180010    0.300291
     14          6           0        1.626324    6.197178   -2.354900
     15          6           0        3.145027    6.064571   -0.367515
     16          6           0        2.481061    6.999982   -1.376612
     17          1           0        1.072625    6.863773   -3.022533
     18          1           0        2.272419    5.570053   -2.978718
     19          1           0        3.677221    6.635787    0.398694
     20          1           0        3.876173    5.425119   -0.873764
     21          1           0        3.232144    7.584530   -1.914822
     22          1           0        1.844025    7.714871   -0.840101
     23          7           0        1.338993    4.419651   -0.693825
     24          1           0        2.572733    4.491685    0.999395
     25          1           0        1.407731    5.811310    0.884352
     26          1           0       -0.110201    5.917492   -1.096121
     27          1           0        0.101472    4.679062   -2.348297
     28          1           0        3.641797    2.858012   -0.410472
     29          1           0        3.547088    1.248716    0.875493
 ---------------------------------------------------------------------
                    Distance matrix (angstroms):
                    1          2          3          4          5
     1  C    0.000000
     2  C    1.385800   0.000000
     3  C    2.448343   1.406911   0.000000
     4  C    2.824869   2.428769   1.424959   0.000000
     5  C    2.420011   2.767846   2.435300   1.401963   0.000000
     6  C    1.390712   2.385334   2.803985   2.426491   1.388549
     7  H    1.083524   2.153157   3.428887   3.908358   3.402471
     8  H    2.139433   1.085686   2.143605   3.407075   3.853471
     9  H    3.388371   3.849464   3.423427   2.161278   1.082303
    10  H    2.148749   3.373374   3.889143   3.401019   2.136815
    11  B    3.805130   2.511427   1.534111   2.612702   3.862976
    12  C    5.086116   4.870334   3.744996   2.452220   2.842712
    13  C    5.050305   4.342389   3.043681   2.445817   3.552208
    14  C    6.473180   6.079847   4.812365   3.727981   4.335482
    15  C    6.440625   5.646925   4.268132   3.725589   4.848154
    16  C    7.110608   6.540625   5.190087   4.293848   5.122597
    17  H    7.190738   6.947537   5.751154   4.559147   4.917141
    18  H    6.569397   6.066286   4.786558   3.901531   4.640120
    19  H    7.136281   6.284830   4.954958   4.552225   5.676606
    20  H    6.530701   5.601388   4.200763   3.895473   5.145324
    21  H    8.105120   7.471426   6.091380   5.280956   6.149089
    22  H    7.369776   6.922765   5.645347   4.639508   5.286553
    23  N    4.221428   3.708768   2.441807   1.396810   2.438268
    24  H    4.780442   3.863954   2.630322   2.573254   3.812558
    25  H    5.281975   4.776128   3.649737   2.887531   3.663357
    26  H    5.316519   5.276150   4.275191   2.904359   2.964309
    27  H    4.869378   4.837774   3.889294   2.596802   2.631674
    28  H    4.784765   3.591661   2.393187   2.973529   4.334623
    29  H    4.163636   2.781337   2.359596   3.664901   4.791295
                    6          7          8          9         10
     6  C    0.000000
     7  H    2.155410   0.000000
     8  H    3.371236   2.475403   0.000000
     9  H    2.132394   4.279595   4.935146   0.000000
    10  H    1.085227   2.484789   4.273792   2.435704   0.000000
    11  B    4.318000   4.655159   2.658797   4.757390   5.401075
    12  C    4.225100   6.141503   5.830651   2.512039   4.842397
    13  C    4.714146   6.099976   5.046444   3.805851   5.602913
    14  C    5.706328   7.542331   6.942912   4.019034   6.347030
    15  C    6.088492   7.502888   6.269864   4.964547   6.963379
    16  C    6.483730   8.191932   7.306965   4.922097   7.208805
    17  H    6.275855   8.234640   7.862919   4.385661   6.773853
    18  H    5.936365   7.624754   6.846666   4.483020   6.640643
    19  H    6.861109   8.168350   6.819011   5.812458   7.740516
    20  H    6.321012   7.578518   6.116306   5.390014   7.260632
    21  H    7.509505   9.188415   8.184735   5.942024   8.241255
    22  H    6.640357   8.431751   7.740075   4.951695   7.273421
    23  N    3.707547   5.304828   4.579137   2.685366   4.572852
    24  H    4.744965   5.770074   4.388081   4.320238   5.721247
    25  H    4.802724   6.292566   5.539279   3.738497   5.566721
    26  H    4.309021   6.331218   6.283061   2.367679   4.774105
    27  H    3.907666   5.870847   5.830903   2.199617   4.409319
    28  H    5.064585   5.705070   3.835151   5.052051   6.128073
    29  H    4.982463   4.805579   2.431054   5.765166   6.043969
                   11         12         13         14         15
    11  B    0.000000
    12  C    4.381861   0.000000
    13  C    3.187457   2.420629   0.000000
    14  C    5.036839   1.527465   2.882885   0.000000
    15  C    3.999026   2.909321   1.521881   2.504744   0.000000
    16  C    5.175410   2.524854   2.503581   1.527127   1.527783
    17  H    6.084103   2.148225   3.864715   1.093922   3.461603
    18  H    4.791963   2.143492   3.306515   1.095387   2.797208
    19  H    4.570165   3.890297   2.147090   3.461334   1.093890
    20  H    3.607500   3.328298   2.141457   2.802081   1.095336
    21  H    5.889791   3.474477   3.459112   2.167273   2.170720
    22  H    5.818404   2.816202   2.791525   2.155319   2.153934
    23  N    2.991020   1.456540   1.465857   2.449762   2.464548
    24  H    2.517760   3.356956   1.088135   3.880166   2.161003
    25  H    4.064398   2.673291   1.105354   3.269469   2.156272
    26  H    5.089752   1.105325   2.718105   2.162930   3.339013
    27  H    4.663313   1.091353   3.356852   2.151719   3.886690
    28  H    1.195206   4.054626   2.875334   4.358091   3.245096
    29  H    1.198471   5.575045   4.227758   6.213859   4.989908
                   16         17         18         19         20
    16  C    0.000000
    17  H    2.170553   0.000000
    18  H    2.157538   1.764975   0.000000
    19  H    2.171439   4.305890   3.810009   0.000000
    20  H    2.163189   3.814029   2.650257   1.767611   0.000000
    21  H    1.093386   2.531805   2.472057   2.539796   2.482263
    22  H    1.097600   2.466259   3.058995   2.461634   3.061654
    23  N    2.903210   3.386379   2.723131   3.401789   2.735073
    24  H    3.456207   4.904389   4.132608   2.485540   2.465559
    25  H    2.770729   4.060015   3.966006   2.462968   3.055048
    26  H    2.822251   2.450630   3.056430   4.134608   4.022816
    27  H    3.463132   2.484088   2.429878   4.915355   4.120584
    28  H    4.408702   5.428594   3.978222   3.863624   2.619086
    29  H    6.267811   7.269556   5.929054   5.409696   4.539883
                   21         22         23         24         25
    21  H    0.000000
    22  H    1.760366   0.000000
    23  N    3.884754   3.336904   0.000000
    24  H    4.300369   3.782022   2.096258   0.000000
    25  H    3.782614   2.605309   2.105251   1.764051   0.000000
    26  H    3.823684   2.667418   2.122624   3.690833   2.497532
    27  H    4.293105   3.811467   2.082314   4.165247   3.665831
    28  H    4.977033   5.196696   2.796768   2.408217   3.922957
    29  H    6.930194   6.903249   4.170524   3.388446   5.039265
                   26         27         28         29
    26  H    0.000000
    27  H    1.773826   0.000000
    28  H    4.889583   4.427786   0.000000
    29  H    6.249840   5.833727   2.062161   0.000000
 Symmetry turned off by external request.
 Stoichiometry    C11H16BN
 Framework group  C1[X(C11H16BN)]
 Deg. of freedom    81
 Full point group                 C1      NOp   1
 Rotational constants (GHZ):           1.7649324           0.5230592           0.4335250
 General basis read from cards:  (5D, 7F)
 ======================================================================================================
                                       Pseudopotential Parameters
 ======================================================================================================
  Center     Atomic      Valence      Angular      Power
  Number     Number     Electrons     Momentum     of R      Exponent        Coefficient   SO-Coeffient
 ======================================================================================================
    1          6
                                   No pseudopotential on this center.
    2          6
                                   No pseudopotential on this center.
    3          6
                                   No pseudopotential on this center.
    4          6
                                   No pseudopotential on this center.
    5          6
                                   No pseudopotential on this center.
    6          6
                                   No pseudopotential on this center.
    7          1
                                   No pseudopotential on this center.
    8          1
                                   No pseudopotential on this center.
    9          1
                                   No pseudopotential on this center.
   10          1
                                   No pseudopotential on this center.
   11          5
                                   No pseudopotential on this center.
   12          6
                                   No pseudopotential on this center.
   13          6
                                   No pseudopotential on this center.
   14          6
                                   No pseudopotential on this center.
   15          6
                                   No pseudopotential on this center.
   16          6
                                   No pseudopotential on this center.
   17          1
                                   No pseudopotential on this center.
   18          1
                                   No pseudopotential on this center.
   19          1
                                   No pseudopotential on this center.
   20          1
                                   No pseudopotential on this center.
   21          1
                                   No pseudopotential on this center.
   22          1
                                   No pseudopotential on this center.
   23          7
                                   No pseudopotential on this center.
   24          1
                                   No pseudopotential on this center.
   25          1
                                   No pseudopotential on this center.
   26          1
                                   No pseudopotential on this center.
   27          1
                                   No pseudopotential on this center.
   28          1
                                   No pseudopotential on this center.
   29          1
                                   No pseudopotential on this center.
 ======================================================================================================
   398 basis functions,   612 primitive gaussians,   411 cartesian basis functions
    47 alpha electrons       47 beta electrons
       nuclear repulsion energy       769.8099491272 Hartrees.
 NAtoms=   29 NActive=   29 NUniq=   29 SFac= 1.00D+00 NAtFMM=   60 NAOKFM=F Big=F
 Integral buffers will be    131072 words long.
 Raffenetti 2 integral format.
 Two-electron integral symmetry is turned off.
 Nuclear repulsion after empirical dispersion term =      769.7876280655 Hartrees.
 ------------------------------------------------------------------------------
 Polarizable Continuum Model (PCM)
 =================================
 Model                : PCM.
 Atomic radii         : UFF (Universal Force Field).
 Polarization charges : Total charges.
 Charge compensation  : None.
 Solution method      : On-the-fly selection.
 Cavity type          : Scaled VdW (van der Waals Surface) (Alpha=1.100).
 Cavity algorithm     : GePol (No added spheres)
                        Default sphere list used, NSphG=   29.
                        Lebedev-Laikov grids with approx.  5.0 points / Ang**2.
                        Smoothing algorithm: York/Karplus (Gamma=1.0000).
                        Polarization charges: spherical gaussians, with
                                              point-specific exponents (IZeta= 3).
                        Self-potential: point-specific (ISelfS= 7).
                        Self-field    : sphere-specific E.n sum rule (ISelfD= 2).
 Solvent              : Toluene, Eps=   2.374100 Eps(inf)=   2.238315
 ------------------------------------------------------------------------------
 One-electron integrals computed using PRISM.
   1 Symmetry operations used in ECPInt.
 ECPInt:  NShTT=   12561 NPrTT=   39903 LenC2=   12051 LenP2D=   28611.
 LDataN:  DoStor=T MaxTD1= 4 Len=   56
 Number of processors reduced to 108 by ecpmxn.
 NBasis=   398 RedAO= T EigKep=  1.07D-06  NBF=   398
 NBsUse=   397 1.00D-06 EigRej=  4.40D-07 NBFU=   397
 ExpMin= 3.15D-02 ExpMax= 6.29D+03 ExpMxC= 9.49D+02 IAcc=3 IRadAn=         5 AccDes= 0.00D+00
 Harris functional with IExCor= 4639 and IRadAn=       5 diagonalized for initial guess.
 HarFok:  IExCor= 4639 AccDes= 0.00D+00 IRadAn=         5 IDoV= 1 UseB2=F ITyADJ=14
 ICtDFT=  3500011 ScaDFX=  1.000000  1.000000  1.000000  1.000000
 FoFCou: FMM=F IPFlag=           0 FMFlag=      100000 FMFlg1=           0
         NFxFlg=           0 DoJE=T BraDBF=F KetDBF=T FulRan=T
         wScrn=  0.000000 ICntrl=       500 IOpCl=  0 I1Cent=   200000004 NGrid=           0
         NMat0=    1 NMatS0=      1 NMatT0=    0 NMatD0=    1 NMtDS0=    0 NMtDT0=    0
 Symmetry not used in FoFCou.
 Requested convergence on RMS density matrix=1.00D-08 within 300 cycles.
 Requested convergence on MAX density matrix=1.00D-06.
 Requested convergence on             energy=1.00D-06.
 No special actions if energy rises.
 Inv3:  Mode=1 IEnd=    12644427.
 Iteration    1 A*A^-1 deviation from unit magnitude is 7.55D-15 for   2031.
 Iteration    1 A*A^-1 deviation from orthogonality  is 3.09D-15 for   2045    188.
 Iteration    1 A^-1*A deviation from unit magnitude is 7.55D-15 for   2031.
 Iteration    1 A^-1*A deviation from orthogonality  is 1.17D-15 for   2053   1920.
 Error on total polarization charges =  0.01005
 SCF Done:  E(RwB97XD) =  -508.357922216     A.U. after   16 cycles
            NFock= 16  Conv=0.97D-08     -V/T= 2.0046

 **********************************************************************

            Population analysis using the SCF Density.

 **********************************************************************

 Alpha  occ. eigenvalues --  -14.44252 -10.33509 -10.31213 -10.31164 -10.29903
 Alpha  occ. eigenvalues --  -10.29513 -10.28603 -10.28266 -10.27964 -10.27882
 Alpha  occ. eigenvalues --  -10.27794 -10.26907  -6.84001  -1.05479  -0.95655
 Alpha  occ. eigenvalues --   -0.90472  -0.86419  -0.84797  -0.83726  -0.75297
 Alpha  occ. eigenvalues --   -0.73473  -0.69647  -0.68945  -0.65129  -0.63245
 Alpha  occ. eigenvalues --   -0.58711  -0.56705  -0.56357  -0.54661  -0.54197
 Alpha  occ. eigenvalues --   -0.52405  -0.51590  -0.50703  -0.49776  -0.47758
 Alpha  occ. eigenvalues --   -0.47506  -0.45669  -0.44249  -0.43151  -0.41740
 Alpha  occ. eigenvalues --   -0.41029  -0.40581  -0.40299  -0.39580  -0.35947
 Alpha  occ. eigenvalues --   -0.33956  -0.28161
 Alpha virt. eigenvalues --   -0.00404   0.04111   0.04786   0.05224   0.05405
 Alpha virt. eigenvalues --    0.05941   0.06307   0.06371   0.07460   0.07540
 Alpha virt. eigenvalues --    0.08211   0.08281   0.08627   0.09421   0.09961
 Alpha virt. eigenvalues --    0.10596   0.11207   0.11638   0.11828   0.12467
 Alpha virt. eigenvalues --    0.13515   0.13749   0.14270   0.15189   0.15644
 Alpha virt. eigenvalues --    0.16126   0.16598   0.16728   0.17023   0.17194
 Alpha virt. eigenvalues --    0.17314   0.17710   0.18044   0.18294   0.19005
 Alpha virt. eigenvalues --    0.19081   0.19468   0.19854   0.20080   0.20320
 Alpha virt. eigenvalues --    0.20450   0.20731   0.20985   0.21665   0.22287
 Alpha virt. eigenvalues --    0.22470   0.22837   0.22956   0.23445   0.24049
 Alpha virt. eigenvalues --    0.24220   0.24639   0.24981   0.25300   0.25540
 Alpha virt. eigenvalues --    0.26424   0.26593   0.27054   0.27428   0.27761
 Alpha virt. eigenvalues --    0.28244   0.28630   0.28886   0.29218   0.29906
 Alpha virt. eigenvalues --    0.30364   0.30756   0.31113   0.31770   0.32409
 Alpha virt. eigenvalues --    0.32913   0.33448   0.33518   0.34339   0.34728
 Alpha virt. eigenvalues --    0.35563   0.35711   0.36311   0.36994   0.37535
 Alpha virt. eigenvalues --    0.37871   0.38441   0.38748   0.39578   0.39841
 Alpha virt. eigenvalues --    0.40340   0.40554   0.41206   0.41751   0.42190
 Alpha virt. eigenvalues --    0.42920   0.43391   0.43951   0.45654   0.46324
 Alpha virt. eigenvalues --    0.47168   0.48084   0.49078   0.50550   0.54686
 Alpha virt. eigenvalues --    0.55359   0.56118   0.57692   0.58133   0.58541
 Alpha virt. eigenvalues --    0.59955   0.61269   0.62165   0.63611   0.64034
 Alpha virt. eigenvalues --    0.64956   0.65184   0.65561   0.65986   0.67500
 Alpha virt. eigenvalues --    0.68334   0.68445   0.69427   0.70764   0.71573
 Alpha virt. eigenvalues --    0.71818   0.72332   0.73159   0.74758   0.75143
 Alpha virt. eigenvalues --    0.75334   0.76654   0.77151   0.77538   0.78239
 Alpha virt. eigenvalues --    0.79296   0.79882   0.80634   0.80964   0.81745
 Alpha virt. eigenvalues --    0.83076   0.83673   0.84588   0.85317   0.85735
 Alpha virt. eigenvalues --    0.86205   0.86531   0.87263   0.88043   0.88463
 Alpha virt. eigenvalues --    0.89222   0.91369   0.93140   0.94678   0.94924
 Alpha virt. eigenvalues --    0.95421   0.97199   0.98478   0.98703   0.99535
 Alpha virt. eigenvalues --    0.99937   1.01070   1.01914   1.02582   1.05498
 Alpha virt. eigenvalues --    1.07003   1.08034   1.09775   1.12055   1.13003
 Alpha virt. eigenvalues --    1.14067   1.15855   1.17116   1.18186   1.19305
 Alpha virt. eigenvalues --    1.20902   1.23085   1.24400   1.24980   1.28261
 Alpha virt. eigenvalues --    1.31519   1.33988   1.35368   1.36936   1.39964
 Alpha virt. eigenvalues --    1.41003   1.43689   1.45799   1.47428   1.50103
 Alpha virt. eigenvalues --    1.53484   1.57280   1.58519   1.59426   1.61627
 Alpha virt. eigenvalues --    1.63201   1.64824   1.64970   1.65288   1.66319
 Alpha virt. eigenvalues --    1.66881   1.68226   1.68787   1.69048   1.70044
 Alpha virt. eigenvalues --    1.70915   1.71821   1.73003   1.74112   1.74766
 Alpha virt. eigenvalues --    1.75666   1.77218   1.77530   1.78982   1.79681
 Alpha virt. eigenvalues --    1.81573   1.81958   1.82746   1.83231   1.84687
 Alpha virt. eigenvalues --    1.86040   1.87484   1.88013   1.88763   1.90352
 Alpha virt. eigenvalues --    1.91054   1.91662   1.93155   1.93858   1.94297
 Alpha virt. eigenvalues --    1.96964   1.98885   2.00560   2.01377   2.02331
 Alpha virt. eigenvalues --    2.03980   2.05392   2.06628   2.07185   2.09257
 Alpha virt. eigenvalues --    2.11979   2.12773   2.14514   2.14983   2.16428
 Alpha virt. eigenvalues --    2.17570   2.18927   2.21448   2.24710   2.26323
 Alpha virt. eigenvalues --    2.27333   2.28521   2.31161   2.33358   2.35432
 Alpha virt. eigenvalues --    2.36370   2.36972   2.38743   2.40780   2.42234
 Alpha virt. eigenvalues --    2.42974   2.44186   2.45777   2.49703   2.54409
 Alpha virt. eigenvalues --    2.55046   2.55997   2.57676   2.58115   2.60915
 Alpha virt. eigenvalues --    2.62546   2.64957   2.66529   2.68874   2.70584
 Alpha virt. eigenvalues --    2.72835   2.74923   2.75518   2.76570   2.77119
 Alpha virt. eigenvalues --    2.79270   2.79704   2.81140   2.81800   2.83458
 Alpha virt. eigenvalues --    2.83767   2.84717   2.86868   2.87442   2.88252
 Alpha virt. eigenvalues --    2.89504   2.91853   2.92720   2.93480   2.94354
 Alpha virt. eigenvalues --    2.96319   2.97161   2.97991   2.98895   3.00544
 Alpha virt. eigenvalues --    3.00963   3.03272   3.04821   3.07212   3.08129
 Alpha virt. eigenvalues --    3.10836   3.14946   3.15812   3.18319   3.19655
 Alpha virt. eigenvalues --    3.23306   3.24702   3.32299   3.34201   3.44945
 Alpha virt. eigenvalues --    3.46794   3.48758   3.53387   3.57105   3.60827
 Alpha virt. eigenvalues --    3.65476   3.68095   3.68621   3.84693   3.88469
 Alpha virt. eigenvalues --    3.89802   3.92805   3.94837   3.98268   4.06963
 Alpha virt. eigenvalues --    4.08959   4.15512   4.21384   4.23812   4.25675
 Alpha virt. eigenvalues --    4.28536   4.31482   4.43862   4.45432   4.94198
 Alpha virt. eigenvalues --    4.98868   5.16729  14.80539  23.76622  23.98454
 Alpha virt. eigenvalues --   24.06316  24.07126  24.08444  24.08543  24.09500
 Alpha virt. eigenvalues --   24.10260  24.17748  24.23329  24.32541  35.76087
          Condensed to atoms (all electrons):
               1          2          3          4          5          6
     1  C    7.120021   0.740806  -1.543292  -0.607747  -0.459212   0.819856
     2  C    0.740806  11.178885  -0.011640  -4.249402  -1.422049  -0.979545
     3  C   -1.543292  -0.011640  17.165722  -2.263211  -7.485910   0.434625
     4  C   -0.607747  -4.249402  -2.263211  17.287587  -0.164901  -2.010055
     5  C   -0.459212  -1.422049  -7.485910  -0.164901  14.980609  -0.020236
     6  C    0.819856  -0.979545   0.434625  -2.010055  -0.020236   8.219735
     7  H    0.479230  -0.061658  -0.022852   0.011378  -0.020164  -0.041327
     8  H   -0.096622   0.403544  -0.104811   0.053399   0.071032  -0.015765
     9  H    0.019916   0.007311  -0.152222  -0.134710   0.691667  -0.087603
    10  H   -0.077912   0.012982   0.039015   0.039283  -0.037492   0.344636
    11  B    0.079476   0.028930  -0.235290   0.217791   0.032066   0.088127
    12  C   -0.018298   0.205542  -0.352165  -0.248301   0.346645  -0.421809
    13  C    0.023461  -0.471743  -1.167085   0.565466   0.846452   0.198901
    14  C   -0.026275   0.200425   0.676856   0.224770  -1.140291  -0.254715
    15  C    0.011700   0.346574   0.715359  -0.821497  -0.442471  -0.085315
    16  C   -0.004128  -0.009815  -0.043330   0.136226   0.029185   0.008662
    17  H   -0.000025  -0.000501  -0.008850   0.016935   0.003217  -0.001980
    18  H    0.004526  -0.000052  -0.000180  -0.094557   0.034328   0.004848
    19  H   -0.000151  -0.002013  -0.002461  -0.001099   0.008915   0.001738
    20  H    0.001864  -0.000275  -0.011400  -0.035768   0.010621  -0.000280
    21  H   -0.000388   0.001038   0.001225   0.014611  -0.007483  -0.000886
    22  H    0.001010   0.000534  -0.006664  -0.036443   0.015948  -0.000662
    23  N    0.043063   0.271463   0.209331  -0.782622  -0.478659   0.014021
    24  H    0.010474  -0.010159   0.080764   0.019964  -0.054652  -0.017204
    25  H    0.003597  -0.066676  -0.097181   0.042778   0.104287   0.034040
    26  H    0.015261  -0.015319  -0.041728  -0.225493   0.162605   0.059087
    27  H   -0.001393  -0.001352  -0.014168   0.051697   0.034081  -0.011119
    28  H   -0.015517  -0.377374  -0.355925   0.571475   0.100018   0.012309
    29  H    0.025073   0.323894  -0.166183  -0.265160  -0.070247   0.022222
               7          8          9         10         11         12
     1  C    0.479230  -0.096622   0.019916  -0.077912   0.079476  -0.018298
     2  C   -0.061658   0.403544   0.007311   0.012982   0.028930   0.205542
     3  C   -0.022852  -0.104811  -0.152222   0.039015  -0.235290  -0.352165
     4  C    0.011378   0.053399  -0.134710   0.039283   0.217791  -0.248301
     5  C   -0.020164   0.071032   0.691667  -0.037492   0.032066   0.346645
     6  C   -0.041327  -0.015765  -0.087603   0.344636   0.088127  -0.421809
     7  H    0.466595  -0.010665   0.001634  -0.009878   0.001697  -0.001348
     8  H   -0.010665   0.496378   0.000616   0.003271  -0.035348   0.001576
     9  H    0.001634   0.000616   0.503995  -0.008597  -0.002338   0.043824
    10  H   -0.009878   0.003271  -0.008597   0.460465  -0.000017   0.000196
    11  B    0.001697  -0.035348  -0.002338  -0.000017   4.096375   0.005071
    12  C   -0.001348   0.001576   0.043824   0.000196   0.005071   6.758592
    13  C    0.000662  -0.000727   0.007895  -0.002304   0.054694  -0.273102
    14  C   -0.000877   0.000361  -0.027600   0.001324  -0.053829  -1.071636
    15  C   -0.000038  -0.001283  -0.009783   0.000063  -0.041111   0.221691
    16  C   -0.000008  -0.000307   0.004290   0.000048  -0.000017   0.012165
    17  H   -0.000000   0.000026   0.000726  -0.000030  -0.000580  -0.020807
    18  H    0.000071  -0.000393  -0.000264  -0.000289  -0.004707  -0.059679
    19  H    0.000005   0.000006   0.000120   0.000006  -0.001452   0.002368
    20  H    0.000021  -0.000248  -0.000018  -0.000082   0.011606   0.022119
    21  H   -0.000005   0.000030  -0.000046   0.000022  -0.001110  -0.008008
    22  H    0.000010  -0.000049   0.000719  -0.000107  -0.001366  -0.042189
    23  N    0.000508  -0.006508  -0.035696  -0.005053  -0.023077   0.286844
    24  H    0.000202  -0.001088  -0.002095  -0.000075  -0.037489  -0.030961
    25  H    0.000060   0.000288   0.004087  -0.000461   0.011353  -0.027716
    26  H    0.000109  -0.000524  -0.005217  -0.001012   0.002402   0.460741
    27  H   -0.000030  -0.000002  -0.009569   0.000809  -0.004689   0.415903
    28  H    0.000232  -0.002902  -0.001499  -0.000182   0.459715  -0.032162
    29  H   -0.000818  -0.004920  -0.000750   0.000498   0.511595  -0.002652
              13         14         15         16         17         18
     1  C    0.023461  -0.026275   0.011700  -0.004128  -0.000025   0.004526
     2  C   -0.471743   0.200425   0.346574  -0.009815  -0.000501  -0.000052
     3  C   -1.167085   0.676856   0.715359  -0.043330  -0.008850  -0.000180
     4  C    0.565466   0.224770  -0.821497   0.136226   0.016935  -0.094557
     5  C    0.846452  -1.140291  -0.442471   0.029185   0.003217   0.034328
     6  C    0.198901  -0.254715  -0.085315   0.008662  -0.001980   0.004848
     7  H    0.000662  -0.000877  -0.000038  -0.000008  -0.000000   0.000071
     8  H   -0.000727   0.000361  -0.001283  -0.000307   0.000026  -0.000393
     9  H    0.007895  -0.027600  -0.009783   0.004290   0.000726  -0.000264
    10  H   -0.002304   0.001324   0.000063   0.000048  -0.000030  -0.000289
    11  B    0.054694  -0.053829  -0.041111  -0.000017  -0.000580  -0.004707
    12  C   -0.273102  -1.071636   0.221691   0.012165  -0.020807  -0.059679
    13  C    6.926500  -0.206738  -0.943062  -0.083367   0.013595  -0.019753
    14  C   -0.206738   7.962375  -0.017461  -0.240351   0.394325   0.469944
    15  C   -0.943062  -0.017461   6.780756  -0.041621   0.001553  -0.020403
    16  C   -0.083367  -0.240351  -0.041621   5.906285  -0.048379  -0.032198
    17  H    0.013595   0.394325   0.001553  -0.048379   0.499948  -0.018363
    18  H   -0.019753   0.469944  -0.020403  -0.032198  -0.018363   0.508007
    19  H   -0.011813  -0.007038   0.394949  -0.048320   0.000942  -0.002890
    20  H   -0.091112  -0.043453   0.519430  -0.056658  -0.004598   0.006273
    21  H   -0.000058  -0.028750  -0.049420   0.420420  -0.008856  -0.003043
    22  H   -0.052429  -0.038860  -0.055818   0.540138  -0.005248   0.007755
    23  N    0.069494  -0.153620   0.069298  -0.043100   0.005298   0.046621
    24  H    0.468111   0.048042  -0.039266  -0.026316  -0.000416  -0.001539
    25  H    0.587351  -0.055057  -0.178740  -0.004362   0.001038   0.001289
    26  H    0.019967  -0.135788  -0.004245  -0.016114  -0.005933   0.012027
    27  H    0.009536  -0.029249  -0.004366   0.005076  -0.008086  -0.011212
    28  H    0.080738   0.006217  -0.081736   0.015047   0.000375   0.000700
    29  H   -0.014910   0.003133   0.011934  -0.002079  -0.000094  -0.000732
              19         20         21         22         23         24
     1  C   -0.000151   0.001864  -0.000388   0.001010   0.043063   0.010474
     2  C   -0.002013  -0.000275   0.001038   0.000534   0.271463  -0.010159
     3  C   -0.002461  -0.011400   0.001225  -0.006664   0.209331   0.080764
     4  C   -0.001099  -0.035768   0.014611  -0.036443  -0.782622   0.019964
     5  C    0.008915   0.010621  -0.007483   0.015948  -0.478659  -0.054652
     6  C    0.001738  -0.000280  -0.000886  -0.000662   0.014021  -0.017204
     7  H    0.000005   0.000021  -0.000005   0.000010   0.000508   0.000202
     8  H    0.000006  -0.000248   0.000030  -0.000049  -0.006508  -0.001088
     9  H    0.000120  -0.000018  -0.000046   0.000719  -0.035696  -0.002095
    10  H    0.000006  -0.000082   0.000022  -0.000107  -0.005053  -0.000075
    11  B   -0.001452   0.011606  -0.001110  -0.001366  -0.023077  -0.037489
    12  C    0.002368   0.022119  -0.008008  -0.042189   0.286844  -0.030961
    13  C   -0.011813  -0.091112  -0.000058  -0.052429   0.069494   0.468111
    14  C   -0.007038  -0.043453  -0.028750  -0.038860  -0.153620   0.048042
    15  C    0.394949   0.519430  -0.049420  -0.055818   0.069298  -0.039266
    16  C   -0.048320  -0.056658   0.420420   0.540138  -0.043100  -0.026316
    17  H    0.000942  -0.004598  -0.008856  -0.005248   0.005298  -0.000416
    18  H   -0.002890   0.006273  -0.003043   0.007755   0.046621  -0.001539
    19  H    0.504201  -0.014735  -0.009236  -0.004967   0.013037  -0.009085
    20  H   -0.014735   0.517482  -0.003565   0.003479   0.023259  -0.004141
    21  H   -0.009236  -0.003565   0.500522  -0.009711  -0.010261   0.001319
    22  H   -0.004967   0.003479  -0.009711   0.512821   0.020549  -0.000655
    23  N    0.013037   0.023259  -0.010261   0.020549   7.247475  -0.073374
    24  H   -0.009085  -0.004141   0.001319  -0.000655  -0.073374   0.582793
    25  H   -0.000655   0.006653  -0.001913   0.000472  -0.089275  -0.023377
    26  H    0.000853   0.005346  -0.002811   0.005641  -0.005692  -0.005883
    27  H    0.000723  -0.001851  -0.000558  -0.003731  -0.084359   0.000863
    28  H   -0.000823  -0.005408   0.000935   0.000539  -0.030933   0.018008
    29  H   -0.000137   0.000426   0.000046  -0.000113   0.007981   0.000359
              25         26         27         28         29
     1  C    0.003597   0.015261  -0.001393  -0.015517   0.025073
     2  C   -0.066676  -0.015319  -0.001352  -0.377374   0.323894
     3  C   -0.097181  -0.041728  -0.014168  -0.355925  -0.166183
     4  C    0.042778  -0.225493   0.051697   0.571475  -0.265160
     5  C    0.104287   0.162605   0.034081   0.100018  -0.070247
     6  C    0.034040   0.059087  -0.011119   0.012309   0.022222
     7  H    0.000060   0.000109  -0.000030   0.000232  -0.000818
     8  H    0.000288  -0.000524  -0.000002  -0.002902  -0.004920
     9  H    0.004087  -0.005217  -0.009569  -0.001499  -0.000750
    10  H   -0.000461  -0.001012   0.000809  -0.000182   0.000498
    11  B    0.011353   0.002402  -0.004689   0.459715   0.511595
    12  C   -0.027716   0.460741   0.415903  -0.032162  -0.002652
    13  C    0.587351   0.019967   0.009536   0.080738  -0.014910
    14  C   -0.055057  -0.135788  -0.029249   0.006217   0.003133
    15  C   -0.178740  -0.004245  -0.004366  -0.081736   0.011934
    16  C   -0.004362  -0.016114   0.005076   0.015047  -0.002079
    17  H    0.001038  -0.005933  -0.008086   0.000375  -0.000094
    18  H    0.001289   0.012027  -0.011212   0.000700  -0.000732
    19  H   -0.000655   0.000853   0.000723  -0.000823  -0.000137
    20  H    0.006653   0.005346  -0.001851  -0.005408   0.000426
    21  H   -0.001913  -0.002811  -0.000558   0.000935   0.000046
    22  H    0.000472   0.005641  -0.003731   0.000539  -0.000113
    23  N   -0.089275  -0.005692  -0.084359  -0.030933   0.007981
    24  H   -0.023377  -0.005883   0.000863   0.018008   0.000359
    25  H    0.538876   0.019973  -0.005493   0.003319  -0.001145
    26  H    0.019973   0.571881  -0.038792  -0.000703  -0.000420
    27  H   -0.005493  -0.038792   0.540282   0.002240  -0.000206
    28  H    0.003319  -0.000703   0.002240   0.685496  -0.030700
    29  H   -0.001145  -0.000420  -0.000206  -0.030700   0.657669
 Mulliken charges:
               1
     1  C   -0.548372
     2  C   -0.042355
     3  C    0.763650
     4  C   -1.312393
     5  C    0.332091
     6  C   -0.314305
     7  H    0.207254
     8  H    0.251636
     9  H    0.191209
    10  H    0.240874
    11  B   -0.158475
    12  C   -0.172443
    13  C   -0.534621
    14  C   -0.456184
    15  C   -0.235671
    16  C   -0.377071
    17  H    0.194769
    18  H    0.173864
    19  H    0.189010
    20  H    0.145014
    21  H    0.205941
    22  H    0.149397
    23  N    0.493989
    24  H    0.106875
    25  H    0.192589
    26  H    0.169780
    27  H    0.169013
    28  H   -0.021500
    29  H   -0.003565
 Sum of Mulliken charges =  -0.00000
 Mulliken charges with hydrogens summed into heavy atoms:
               1
     1  C   -0.341117
     2  C    0.209281
     3  C    0.763650
     4  C   -1.312393
     5  C    0.523300
     6  C   -0.073430
    11  B   -0.183540
    12  C    0.166349
    13  C   -0.235157
    14  C   -0.087551
    15  C    0.098353
    16  C   -0.021733
    23  N    0.493989
 Electronic spatial extent (au):  <R**2>=           8249.4704
 Charge=             -0.0000 electrons
 Dipole moment (field-independent basis, Debye):
    X=             -1.3694    Y=              1.9280    Z=             -0.4352  Tot=              2.4046
 Quadrupole moment (field-independent basis, Debye-Ang):
   XX=            -81.4610   YY=            -61.8457   ZZ=            -80.5018
   XY=              1.0245   XZ=              1.1356   YZ=             -4.7291
 Traceless Quadrupole moment (field-independent basis, Debye-Ang):
   XX=             -6.8582   YY=             12.7572   ZZ=             -5.8990
   XY=              1.0245   XZ=              1.1356   YZ=             -4.7291
 Octapole moment (field-independent basis, Debye-Ang**2):
  XXX=           -311.5024  YYY=           -797.8659  ZZZ=             83.2525  XYY=            -71.2055
  XXY=           -298.5240  XXZ=             29.9481  XZZ=            -93.6291  YZZ=           -300.7012
  YYZ=              5.5238  XYZ=              5.1308
 Hexadecapole moment (field-independent basis, Debye-Ang**3):
 XXXX=          -1873.7790 YYYY=          -8424.5692 ZZZZ=           -633.2404 XXXY=          -1457.2055
 XXXZ=            149.5575 YYYX=          -1253.6521 YYYZ=            561.9738 ZZZX=            149.1165
 ZZZY=            676.6171 XXYY=          -1741.5085 XXZZ=           -402.6171 YYZZ=          -1574.7176
 XXYZ=            236.9083 YYXZ=             61.3560 ZZXY=           -469.4683
 N-N= 7.697876280655D+02 E-N=-2.718299350247D+03  KE= 5.060057267352D+02
 Breneman (CHELPG) radii used.
 Generate Potential Derived Charges using the Breneman model, NDens= 1.
 Grid spacing= 0.300 Box extension= 2.800
 NStep X,Y,Z=   41     45     34   Total possible points=       62730
 Number of Points to Fit=   16533

 **********************************************************************

            Electrostatic Properties Using The SCF Density.

 **********************************************************************

       Atomic Center    1 is at  -0.599670  0.929981  0.678852
       Atomic Center    2 is at   0.771699  1.078270  0.812265
       Atomic Center    3 is at   1.460772  2.204781  0.326931
       Atomic Center    4 is at   0.698960  3.256526 -0.259570
       Atomic Center    5 is at  -0.686382  3.094083 -0.400776
       Atomic Center    6 is at  -1.317916  1.944761  0.055615
       Atomic Center    7 is at  -1.101628  0.043024  1.046779
       Atomic Center    8 is at   1.351038  0.286239  1.276772
       Atomic Center    9 is at  -1.287199  3.878894 -0.841765
       Atomic Center   10 is at  -2.393409  1.855194 -0.058443
       Atomic Center   11 is at   2.991347  2.119285  0.267550
       Atomic Center   12 is at   0.635778  5.294268 -1.622287
       Atomic Center   13 is at   2.102094  5.180010  0.300291
       Atomic Center   14 is at   1.626324  6.197178 -2.354900
       Atomic Center   15 is at   3.145027  6.064571 -0.367515
       Atomic Center   16 is at   2.481061  6.999982 -1.376612
       Atomic Center   17 is at   1.072625  6.863773 -3.022533
       Atomic Center   18 is at   2.272419  5.570053 -2.978718
       Atomic Center   19 is at   3.677221  6.635787  0.398694
       Atomic Center   20 is at   3.876173  5.425119 -0.873764
       Atomic Center   21 is at   3.232144  7.584530 -1.914822
       Atomic Center   22 is at   1.844025  7.714871 -0.840101
       Atomic Center   23 is at   1.338993  4.419651 -0.693825
       Atomic Center   24 is at   2.572733  4.491685  0.999395
       Atomic Center   25 is at   1.407731  5.811310  0.884352
       Atomic Center   26 is at  -0.110201  5.917492 -1.096121
       Atomic Center   27 is at   0.101472  4.679062 -2.348297
       Atomic Center   28 is at   3.641797  2.858012 -0.410472
       Atomic Center   29 is at   3.547088  1.248716  0.875493
   16533 points will be used for fitting atomic charges
 Fitting point charges to electrostatic potential
 Charges from ESP fit, RMS=   0.00363 RRMS=   0.35617:
 ESP charges:
               1
     1  C   -0.185014
     2  C   -0.031499
     3  C   -0.337763
     4  C    0.444073
     5  C   -0.238662
     6  C   -0.046555
     7  H    0.110493
     8  H    0.092197
     9  H    0.108434
    10  H    0.106921
    11  B    0.526196
    12  C    0.196269
    13  C    0.294943
    14  C   -0.081312
    15  C   -0.074801
    16  C    0.050645
    17  H    0.012111
    18  H    0.040837
    19  H    0.003855
    20  H    0.059806
    21  H   -0.004084
    22  H    0.002630
    23  N   -0.580934
    24  H   -0.025451
    25  H   -0.038379
    26  H    0.011412
    27  H    0.013700
    28  H   -0.222191
    29  H   -0.207876
 Sum of ESP charges =  -0.00000
 ESP charges with hydrogens summed into heavy atoms:
               1
     1  C   -0.074521
     2  C    0.060698
     3  C   -0.337763
     4  C    0.444073
     5  C   -0.130228
     6  C    0.060366
    11  B    0.096128
    12  C    0.221381
    13  C    0.231113
    14  C   -0.028364
    15  C   -0.011139
    16  C    0.049191
    23  N   -0.580934
 Charge=  -0.00000 Dipole=    -1.3795     1.8141    -0.3982 Tot=     2.3135
 -----------------------------------------------------------------

              Electrostatic Properties (Atomic Units)

 -----------------------------------------------------------------
    Center     Electric         -------- Electric Field --------
               Potential          X             Y             Z
 -----------------------------------------------------------------
    1 Atom    -14.782749
    2 Atom    -14.773769
    3 Atom    -14.798220
    4 Atom    -14.729820
    5 Atom    -14.777604
    6 Atom    -14.766384
    7 Atom     -1.108343
    8 Atom     -1.113322
    9 Atom     -1.100875
   10 Atom     -1.100297
   11 Atom    -11.479981
   12 Atom    -14.741613
   13 Atom    -14.743322
   14 Atom    -14.773226
   15 Atom    -14.776188
   16 Atom    -14.773459
   17 Atom     -1.119490
   18 Atom     -1.126985
   19 Atom     -1.121734
   20 Atom     -1.129313
   21 Atom     -1.124517
   22 Atom     -1.124072
   23 Atom    -18.382213
   24 Atom     -1.116260
   25 Atom     -1.121763
   26 Atom     -1.117243
   27 Atom     -1.113029
   28 Atom     -1.174923
   29 Atom     -1.173757
 -----------------------------------------------------------------
 Unable to Open any file for archive entry.
 1\1\GINC-IRENE4624\SP\RwB97XD\GenECP\C11H16B1N1\PENASFRA\10-Apr-2024\0
 \\# wb97xd/genecp scrf=(solvent=toluene,pcm) nosymm pop=(chelpg) scfcy
 c=300\\h_benzopiperidine_chelpg\\0,1\C,0,-0.59967,0.929981,0.678852\C,
 0,0.771699,1.07827,0.812265\C,0,1.460772,2.204781,0.326931\C,0,0.69896
 ,3.256526,-0.25957\C,0,-0.686382,3.094083,-0.400776\C,0,-1.317916,1.94
 4761,0.055615\H,0,-1.101628,0.043024,1.046779\H,0,1.351038,0.286239,1.
 276772\H,0,-1.287199,3.878894,-0.841765\H,0,-2.393409,1.855194,-0.0584
 43\B,0,2.991347,2.119285,0.26755\C,0,0.635778,5.294268,-1.622287\C,0,2
 .102094,5.18001,0.300291\C,0,1.626324,6.197178,-2.3549\C,0,3.145027,6.
 064571,-0.367515\C,0,2.481061,6.999982,-1.376612\H,0,1.072625,6.863773
 ,-3.022533\H,0,2.272419,5.570053,-2.978718\H,0,3.677221,6.635787,0.398
 694\H,0,3.876173,5.425119,-0.873764\H,0,3.232144,7.58453,-1.914822\H,0
 ,1.844025,7.714871,-0.840101\N,0,1.338993,4.419651,-0.693825\H,0,2.572
 733,4.491685,0.999395\H,0,1.407731,5.81131,0.884352\H,0,-0.110201,5.91
 7492,-1.096121\H,0,0.101472,4.679062,-2.348297\H,0,3.641797,2.858012,-
 0.410472\H,0,3.547088,1.248716,0.875493\\Version=AS64L-G16RevC.02\HF=-
 508.3579222\RMSD=9.676e-09\Dipole=-0.5387815,0.758547,-0.1712143\Quadr
 upole=-5.098894,9.4846302,-4.3857362,0.761692,0.8442847,-3.5159944\PG=
 C01 [X(C11H16B1N1)]\\@
 The archive entry for this job was punched.


 THE ONLY EXISTING THINGS ARE ATOMS AND EMPTY SPACE;
 ALL ELSE IS MERE OPINION. -- DEMOCRITUS OF ABDERA D. 370 B.C.
 EXPERIMENTS ARE THE ONLY MEANS OF KNOWLEDGE AT OUR DISPOSAL
 THE REST IS POETRY, IMAGINATION. -- MAX PLANCK
 Job cpu time:       0 days  0 hours 54 minutes 19.6 seconds.
 Elapsed time:       0 days  0 hours  0 minutes 33.6 seconds.
 File lengths (MBytes):  RWF=    157 Int=      0 D2E=      0 Chk=     11 Scr=      1
 Normal termination of Gaussian 16 at Wed Apr 10 15:57:47 2024.
