 Entering Gaussian System, Link 0=/ccc/products/gaussian-16-C.02/system/default/g16/g16
 Input=h_biphenylene_chelpg.gjf
 Output=h_biphenylene_chelpg.log
 Initial command:
 /ccc/products/gaussian-16-C.02/system/default/g16/l1.exe "/ccc/scratch/cont003/gen7343/penasfra/flp/b-n_flp/h_biphenylene/reac/Gau-61576.inp" -scrdir="/ccc/scratch/cont003/gen7343/penasfra/flp/b-n_flp/h_biphenylene/reac/"
 Entering Link 1 = /ccc/products/gaussian-16-C.02/system/default/g16/l1.exe PID=     61625.
  
 Copyright (c) 1988-2021, Gaussian, Inc.  All Rights Reserved.
  
 This is part of the Gaussian(R) 16 program.  It is based on
 the Gaussian(R) 09 system (copyright 2009, Gaussian, Inc.),
 the Gaussian(R) 03 system (copyright 2003, Gaussian, Inc.),
 the Gaussian(R) 98 system (copyright 1998, Gaussian, Inc.),
 the Gaussian(R) 94 system (copyright 1995, Gaussian, Inc.),
 the Gaussian 92(TM) system (copyright 1992, Gaussian, Inc.),
 the Gaussian 90(TM) system (copyright 1990, Gaussian, Inc.),
 the Gaussian 88(TM) system (copyright 1988, Gaussian, Inc.),
 the Gaussian 86(TM) system (copyright 1986, Carnegie Mellon
 University), and the Gaussian 82(TM) system (copyright 1983,
 Carnegie Mellon University). Gaussian is a federally registered
 trademark of Gaussian, Inc.
  
 This software contains proprietary and confidential information,
 including trade secrets, belonging to Gaussian, Inc.
  
 This software is provided under written license and may be
 used, copied, transmitted, or stored only in accord with that
 written license.
  
 The following legend is applicable only to US Government
 contracts under FAR:
  
                    RESTRICTED RIGHTS LEGEND
  
 Use, reproduction and disclosure by the US Government is
 subject to restrictions as set forth in subparagraphs (a)
 and (c) of the Commercial Computer Software - Restricted
 Rights clause in FAR 52.227-19.
  
 Gaussian, Inc.
 340 Quinnipiac St., Bldg. 40, Wallingford CT 06492
  
  
 ---------------------------------------------------------------
 Warning -- This program may not be used in any manner that
 competes with the business of Gaussian, Inc. or will provide
 assistance to any competitor of Gaussian, Inc.  The licensee
 of this program is prohibited from giving any competitor of
 Gaussian, Inc. access to this program.  By using this program,
 the user acknowledges that Gaussian, Inc. is engaged in the
 business of creating and licensing software in the field of
 computational chemistry and represents and warrants to the
 licensee that it is not a competitor of Gaussian, Inc. and that
 it will not use this program in any manner prohibited above.
 ---------------------------------------------------------------
  

 Cite this work as:
 Gaussian 16, Revision C.02,
 M. J. Frisch, G. W. Trucks, H. B. Schlegel, G. E. Scuseria, 
 M. A. Robb, J. R. Cheeseman, G. Scalmani, V. Barone, 
 G. A. Petersson, H. Nakatsuji, X. Li, M. Caricato, A. V. Marenich, 
 J. Bloino, B. G. Janesko, R. Gomperts, B. Mennucci, H. P. Hratchian, 
 J. V. Ortiz, A. F. Izmaylov, J. L. Sonnenberg, D. Williams-Young, 
 F. Ding, F. Lipparini, F. Egidi, J. Goings, B. Peng, A. Petrone, 
 T. Henderson, D. Ranasinghe, V. G. Zakrzewski, J. Gao, N. Rega, 
 G. Zheng, W. Liang, M. Hada, M. Ehara, K. Toyota, R. Fukuda, 
 J. Hasegawa, M. Ishida, T. Nakajima, Y. Honda, O. Kitao, H. Nakai, 
 T. Vreven, K. Throssell, J. A. Montgomery, Jr., J. E. Peralta, 
 F. Ogliaro, M. J. Bearpark, J. J. Heyd, E. N. Brothers, K. N. Kudin, 
 V. N. Staroverov, T. A. Keith, R. Kobayashi, J. Normand, 
 K. Raghavachari, A. P. Rendell, J. C. Burant, S. S. Iyengar, 
 J. Tomasi, M. Cossi, J. M. Millam, M. Klene, C. Adamo, R. Cammi, 
 J. W. Ochterski, R. L. Martin, K. Morokuma, O. Farkas, 
 J. B. Foresman, and D. J. Fox, Gaussian, Inc., Wallingford CT, 2019.
 
 ******************************************
 Gaussian 16:  AS64L-G16RevC.02  7-Dec-2021
                10-Apr-2024 
 ******************************************
 %nprocshared=128
 Will use up to  128 processors via shared memory.
 %mem=30GB
 %chk=h_biphenylene_chelpg.chk
 ----------------------------------------------------------------------
 # wb97xd/genecp scrf=(solvent=toluene,pcm) nosymm pop=(chelpg) scfcyc=
 300
 ----------------------------------------------------------------------
 1/38=1,172=1/1;
 2/12=2,15=1,17=6,18=5,40=1/2;
 3/5=7,11=2,16=1,17=8,25=1,30=1,70=2201,72=13,74=-58/1,2,3;
 4//1;
 5/5=2,7=300,38=5,53=13/2;
 6/7=2,8=2,9=2,10=2,15=8,20=3,28=1/1,2;
 99/5=1,9=1/99;
 --------------------
 h_biphenylene_chelpg
 --------------------
 Symbolic Z-matrix:
 Charge =  0 Multiplicity = 1
 C                     1.84456   2.46001  -0.17892 
 C                     1.81176   2.53315  -1.59597 
 C                     1.51328   4.006    -1.50901 
 C                     1.49548   3.92268  -0.09961 
 C                     1.3583    5.17738  -2.19732 
 C                     1.25067   5.01986   0.70787 
 C                     1.15751   6.31394  -1.38609 
 H                     1.39254   5.25085  -3.27681 
 C                     1.09901   6.24303  -0.00473 
 H                     1.02576   7.28252  -1.85642 
 H                     0.91281   7.15702   0.54472 
 C                     2.06078   1.45553  -2.39092 
 H                     2.04517   1.50055  -3.47369 
 C                     2.359     0.24006  -1.71577 
 H                     2.5551   -0.65212  -2.29985 
 C                     2.42595   0.1796   -0.3427 
 C                     2.18995   1.31168   0.51053 
 H                     2.68515  -0.76349   0.1281 
 B                     2.44801   1.23622   2.02299 
 N                     1.16175   4.93017   2.09619 
 C                     1.13749   6.1642    2.85584 
 H                     0.19114   6.71828   2.74711 
 H                     1.26638   5.92245   3.9126 
 H                     1.9628    6.81194   2.55617 
 C                     0.22617   3.93913   2.60892 
 H                     0.48975   3.67902   3.6365 
 H                    -0.8059    4.32251   2.59544 
 H                     0.26036   3.03068   2.01065 
 H                     2.38204   2.21041   2.70853 
 H                     2.75968   0.19003   2.516 
 
                          Input orientation:                          
 ---------------------------------------------------------------------
 Center     Atomic      Atomic             Coordinates (Angstroms)
 Number     Number       Type             X           Y           Z
 ---------------------------------------------------------------------
      1          6           0        1.844560    2.460006   -0.178923
      2          6           0        1.811762    2.533153   -1.595974
      3          6           0        1.513277    4.005995   -1.509012
      4          6           0        1.495476    3.922676   -0.099608
      5          6           0        1.358295    5.177383   -2.197324
      6          6           0        1.250672    5.019858    0.707873
      7          6           0        1.157507    6.313938   -1.386086
      8          1           0        1.392539    5.250850   -3.276809
      9          6           0        1.099012    6.243028   -0.004732
     10          1           0        1.025764    7.282520   -1.856419
     11          1           0        0.912805    7.157019    0.544720
     12          6           0        2.060784    1.455533   -2.390916
     13          1           0        2.045173    1.500551   -3.473689
     14          6           0        2.358999    0.240059   -1.715769
     15          1           0        2.555104   -0.652123   -2.299854
     16          6           0        2.425946    0.179598   -0.342695
     17          6           0        2.189950    1.311675    0.510534
     18          1           0        2.685151   -0.763494    0.128096
     19          5           0        2.448013    1.236215    2.022989
     20          7           0        1.161746    4.930171    2.096187
     21          6           0        1.137492    6.164198    2.855844
     22          1           0        0.191136    6.718284    2.747114
     23          1           0        1.266375    5.922448    3.912604
     24          1           0        1.962799    6.811944    2.556166
     25          6           0        0.226166    3.939125    2.608924
     26          1           0        0.489752    3.679020    3.636498
     27          1           0       -0.805901    4.322507    2.595435
     28          1           0        0.260360    3.030684    2.010653
     29          1           0        2.382041    2.210406    2.708532
     30          1           0        2.759679    0.190029    2.515997
 ---------------------------------------------------------------------
                    Distance matrix (angstroms):
                    1          2          3          4          5
     1  C    0.000000
     2  C    1.419317   0.000000
     3  C    2.066148   1.505297   0.000000
     4  C    1.505840   2.066379   1.411977   0.000000
     5  C    3.419727   2.749401   1.367458   2.448167   0.000000
     6  C    2.773437   3.436020   2.451828   1.384111   2.911454
     7  C    4.096593   3.842712   2.338436   2.736308   1.410737
     8  H    4.194047   3.222861   2.165490   3.445178   1.082524
     9  C    3.859720   4.099175   2.727415   2.355890   2.451589
    10  H    5.171176   4.821007   3.330762   3.820414   2.158332
    11  H    4.842908   5.174054   3.808849   3.348976   3.411191
    12  C    2.438982   1.362061   2.753611   3.414156   3.792511
    13  H    3.437482   2.155588   3.228021   4.189663   3.952215
    14  C    2.748583   2.360529   3.865264   4.113310   5.060679
    15  H    3.832567   3.345742   4.838274   5.185815   5.951975
    16  C    2.359045   2.736266   4.102996   3.864647   5.436670
    17  C    1.383224   2.464226   3.434503   2.769818   4.792478
    18  H    3.345416   3.821401   5.177010   4.840182   6.516298
    19  B    2.590412   3.896634   4.584806   3.553845   5.876337
    20  N    3.426963   4.449749   3.738333   2.438839   4.305111
    21  C    4.840537   5.784273   4.883751   3.726563   5.153355
    22  H    5.424798   6.245331   5.217200   4.197684   5.308870
    23  H    5.391048   6.490701   5.755664   4.488811   6.155875
    24  H    5.141406   5.964154   4.959949   3.952138   5.062893
    25  C    3.546700   4.708719   4.314919   2.991248   5.090680
    26  H    4.228349   5.517199   5.256500   3.876769   6.085469
    27  H    4.265081   5.255650   4.724960   3.566435   5.327767
    28  H    2.762174   3.957543   3.861227   2.602761   4.849830
    29  H    2.947640   4.354096   4.665465   3.406393   5.823953
    30  H    3.640444   4.826705   5.684700   4.729932   7.003783
                    6          7          8          9         10
     6  C    0.000000
     7  C    2.463328   0.000000
     8  H    3.993892   2.181795   0.000000
     9  C    1.423710   1.384409   3.431773   0.000000
    10  H    3.427217   1.084767   2.505936   2.124771   0.000000
    11  H    2.169846   2.121008   4.297407   1.082566   2.407068
    12  C    4.791992   5.042786   3.954212   5.434978   5.942283
    13  H    5.522881   5.321159   3.811750   5.951468   6.089821
    14  C    5.472560   6.200345   5.336564   6.367955   7.168930
    15  H    6.551285   7.163397   6.095169   7.411538   8.092841
    16  C    5.090489   6.350412   5.949332   6.216121   7.396173
    17  C    3.830379   5.448462   5.522403   5.076799   6.527541
    18  H    5.986738   7.397059   7.031114   7.185042   8.451639
    19  B    4.180803   6.250637   6.731952   5.567731   7.323278
    20  N    1.394047   3.747139   5.387503   2.478183   4.601644
    21  C    2.436412   4.244619   6.205537   2.861921   4.844435
    22  H    2.857581   4.263884   6.315408   2.936454   4.712482
    23  H    3.329447   5.314248   7.221816   3.933993   5.932058
    24  H    2.671120   4.054363   6.065131   2.761882   4.535458
    25  C    2.414869   4.739962   6.141897   3.591800   5.635329
    26  H    3.309636   5.710958   7.146992   4.494874   6.591256
    27  H    2.877270   4.865519   6.338628   3.752061   5.651166
    28  H    2.575804   4.808582   5.845359   3.883847   5.798120
    29  H    3.629828   5.924893   6.785847   5.026928   6.957342
    30  H    5.373422   7.436092   7.812655   6.763925   8.510459
                   11         12         13         14         15
    11  H    0.000000
    12  C    6.514811   0.000000
    13  H    7.030327   1.083821   0.000000
    14  C    7.419274   1.422017   2.185774   0.000000
    15  H    8.471803   2.166762   2.504381   1.084251   0.000000
    16  C    7.194547   2.440607   3.419507   1.376034   2.130472
    17  C    5.983336   2.907884   3.991324   2.476563   3.447915
    18  H    8.127073   3.414577   4.302130   2.124460   2.433980
    19  B    6.292699   4.436283   5.517755   3.870215   4.718502
    20  N    2.725413   5.745909   6.600474   6.161296   7.240762
    21  C    2.525366   7.110027   7.914321   7.582028   8.663318
    22  H    2.358778   7.588905   8.328300   8.159924   9.240299
    23  H    3.604417   7.766517   8.643901   8.072295   9.136763
    24  H    2.295099   7.292075   8.035971   7.848317   8.924352
    25  C    3.884231   5.876432   6.801001   6.077420   7.113340
    26  H    4.672745   6.613755   7.597356   6.630784   7.633135
    27  H    3.897928   6.426595   7.275048   6.728258   7.746428
    28  H    4.427334   5.009634   5.966982   5.106672   6.116321
    29  H    5.595509   5.165018   6.231952   4.843267   5.771304
    30  H    7.472337   5.115442   6.172870   4.250987   4.893209
                   16         17         18         19         20
    16  C    0.000000
    17  C    1.437112   0.000000
    18  H    1.085474   2.167443   0.000000
    19  B    2.591020   1.536168   2.765084   0.000000
    20  N    5.487649   4.082280   6.213853   3.912180   0.000000
    21  C    6.906968   5.491368   7.604523   5.166830   1.449307
    22  H    7.569393   6.182958   8.310016   5.972515   2.136150
    23  H    7.241029   5.803990   7.812634   5.189190   2.072422
    24  H    7.252993   5.872748   7.987777   5.622141   2.096267
    25  C    5.261666   3.893993   5.857964   3.547625   1.456153
    26  H    5.641700   4.273950   6.071622   3.522143   2.095116
    27  H    6.020061   4.731495   6.643991   4.521156   2.118995
    28  H    4.284472   2.988087   4.880514   2.829505   2.104249
    29  H    3.665528   2.382396   3.949001   1.193051   3.043223
    30  H    2.878126   2.367396   2.572320   1.197789   5.019818
                   21         22         23         24         25
    21  C    0.000000
    22  H    1.102009   0.000000
    23  H    1.091694   1.774221   0.000000
    24  H    1.091107   1.784383   1.765257   0.000000
    25  C    2.417113   2.782813   2.591368   3.357345   0.000000
    26  H    2.684231   3.180771   2.390052   3.626596   1.092264
    27  H    2.690059   2.599392   2.930712   3.723512   1.101057
    28  H    3.361937   3.761058   3.604412   4.182560   1.088284
    29  H    4.147659   5.012237   4.058787   4.623108   2.765174
    30  H    6.199813   7.019184   6.086140   6.669812   4.525820
                   26         27         28         29         30
    26  H    0.000000
    27  H    1.782303   0.000000
    28  H    1.765314   1.774173   0.000000
    29  H    2.568795   3.825799   2.379374   0.000000
    30  H    4.310586   5.458667   3.817236   2.064365   0.000000
 Symmetry turned off by external request.
 Stoichiometry    C14H14BN
 Framework group  C1[X(C14H14BN)]
 Deg. of freedom    84
 Full point group                 C1      NOp   1
 Rotational constants (GHZ):           0.8674801           0.4615345           0.3114439
 General basis read from cards:  (5D, 7F)
 ======================================================================================================
                                       Pseudopotential Parameters
 ======================================================================================================
  Center     Atomic      Valence      Angular      Power
  Number     Number     Electrons     Momentum     of R      Exponent        Coefficient   SO-Coeffient
 ======================================================================================================
    1          6
                                   No pseudopotential on this center.
    2          6
                                   No pseudopotential on this center.
    3          6
                                   No pseudopotential on this center.
    4          6
                                   No pseudopotential on this center.
    5          6
                                   No pseudopotential on this center.
    6          6
                                   No pseudopotential on this center.
    7          6
                                   No pseudopotential on this center.
    8          1
                                   No pseudopotential on this center.
    9          6
                                   No pseudopotential on this center.
   10          1
                                   No pseudopotential on this center.
   11          1
                                   No pseudopotential on this center.
   12          6
                                   No pseudopotential on this center.
   13          1
                                   No pseudopotential on this center.
   14          6
                                   No pseudopotential on this center.
   15          1
                                   No pseudopotential on this center.
   16          6
                                   No pseudopotential on this center.
   17          6
                                   No pseudopotential on this center.
   18          1
                                   No pseudopotential on this center.
   19          5
                                   No pseudopotential on this center.
   20          7
                                   No pseudopotential on this center.
   21          6
                                   No pseudopotential on this center.
   22          1
                                   No pseudopotential on this center.
   23          1
                                   No pseudopotential on this center.
   24          1
                                   No pseudopotential on this center.
   25          6
                                   No pseudopotential on this center.
   26          1
                                   No pseudopotential on this center.
   27          1
                                   No pseudopotential on this center.
   28          1
                                   No pseudopotential on this center.
   29          1
                                   No pseudopotential on this center.
   30          1
                                   No pseudopotential on this center.
 ======================================================================================================
   450 basis functions,   702 primitive gaussians,   466 cartesian basis functions
    55 alpha electrons       55 beta electrons
       nuclear repulsion energy       994.3908670763 Hartrees.
 NAtoms=   30 NActive=   30 NUniq=   30 SFac= 1.00D+00 NAtFMM=   60 NAOKFM=F Big=F
 Integral buffers will be    131072 words long.
 Raffenetti 2 integral format.
 Two-electron integral symmetry is turned off.
 Nuclear repulsion after empirical dispersion term =      994.3688463893 Hartrees.
 ------------------------------------------------------------------------------
 Polarizable Continuum Model (PCM)
 =================================
 Model                : PCM.
 Atomic radii         : UFF (Universal Force Field).
 Polarization charges : Total charges.
 Charge compensation  : None.
 Solution method      : On-the-fly selection.
 Cavity type          : Scaled VdW (van der Waals Surface) (Alpha=1.100).
 Cavity algorithm     : GePol (No added spheres)
                        Default sphere list used, NSphG=   30.
                        Lebedev-Laikov grids with approx.  5.0 points / Ang**2.
                        Smoothing algorithm: York/Karplus (Gamma=1.0000).
                        Polarization charges: spherical gaussians, with
                                              point-specific exponents (IZeta= 3).
                        Self-potential: point-specific (ISelfS= 7).
                        Self-field    : sphere-specific E.n sum rule (ISelfD= 2).
 Solvent              : Toluene, Eps=   2.374100 Eps(inf)=   2.238315
 ------------------------------------------------------------------------------
 One-electron integrals computed using PRISM.
   1 Symmetry operations used in ECPInt.
 ECPInt:  NShTT=   13861 NPrTT=   47301 LenC2=   12999 LenP2D=   31599.
 LDataN:  DoStor=T MaxTD1= 4 Len=   56
 Number of processors reduced to 100 by ecpmxn.
 NBasis=   450 RedAO= T EigKep=  1.25D-06  NBF=   450
 NBsUse=   444 1.00D-06 EigRej=  7.91D-07 NBFU=   444
 ExpMin= 3.15D-02 ExpMax= 6.29D+03 ExpMxC= 9.49D+02 IAcc=3 IRadAn=         5 AccDes= 0.00D+00
 Harris functional with IExCor= 4639 and IRadAn=       5 diagonalized for initial guess.
 HarFok:  IExCor= 4639 AccDes= 0.00D+00 IRadAn=         5 IDoV= 1 UseB2=F ITyADJ=14
 ICtDFT=  3500011 ScaDFX=  1.000000  1.000000  1.000000  1.000000
 FoFCou: FMM=F IPFlag=           0 FMFlag=      100000 FMFlg1=           0
         NFxFlg=           0 DoJE=T BraDBF=F KetDBF=T FulRan=T
         wScrn=  0.000000 ICntrl=       500 IOpCl=  0 I1Cent=   200000004 NGrid=           0
         NMat0=    1 NMatS0=      1 NMatT0=    0 NMatD0=    1 NMtDS0=    0 NMtDT0=    0
 Symmetry not used in FoFCou.
 Requested convergence on RMS density matrix=1.00D-08 within 300 cycles.
 Requested convergence on MAX density matrix=1.00D-06.
 Requested convergence on             energy=1.00D-06.
 No special actions if energy rises.
 Inv3:  Mode=1 IEnd=    15759792.
 Iteration    1 A*A^-1 deviation from unit magnitude is 4.00D-15 for   2288.
 Iteration    1 A*A^-1 deviation from orthogonality  is 1.91D-15 for   2285    454.
 Iteration    1 A^-1*A deviation from unit magnitude is 4.00D-15 for   2288.
 Iteration    1 A^-1*A deviation from orthogonality  is 1.52D-15 for   1209    828.
 Error on total polarization charges =  0.01052
 SCF Done:  E(RwB97XD) =  -621.372204588     A.U. after   17 cycles
            NFock= 17  Conv=0.71D-08     -V/T= 2.0044

 **********************************************************************

            Population analysis using the SCF Density.

 **********************************************************************

 Alpha  occ. eigenvalues --  -14.45079 -10.33891 -10.31768 -10.30983 -10.30839
 Alpha  occ. eigenvalues --  -10.30821 -10.30542 -10.30265 -10.29942 -10.29916
 Alpha  occ. eigenvalues --  -10.29536 -10.29278 -10.29267 -10.29157 -10.27927
 Alpha  occ. eigenvalues --   -6.84623  -1.05738  -1.01333  -0.94983  -0.90668
 Alpha  occ. eigenvalues --   -0.86447  -0.85018  -0.82300  -0.80590  -0.76853
 Alpha  occ. eigenvalues --   -0.72920  -0.71773  -0.67066  -0.65772  -0.63027
 Alpha  occ. eigenvalues --   -0.58607  -0.58122  -0.57736  -0.56122  -0.55905
 Alpha  occ. eigenvalues --   -0.54565  -0.53721  -0.51124  -0.50678  -0.49588
 Alpha  occ. eigenvalues --   -0.48795  -0.47988  -0.47382  -0.46926  -0.45641
 Alpha  occ. eigenvalues --   -0.44881  -0.43215  -0.42516  -0.40476  -0.39693
 Alpha  occ. eigenvalues --   -0.38177  -0.37489  -0.34769  -0.29285  -0.27305
 Alpha virt. eigenvalues --   -0.01685   0.00783   0.03908   0.04571   0.04972
 Alpha virt. eigenvalues --    0.05282   0.05968   0.06185   0.06476   0.07587
 Alpha virt. eigenvalues --    0.07799   0.08110   0.08450   0.09134   0.09622
 Alpha virt. eigenvalues --    0.10085   0.10207   0.10368   0.11216   0.12265
 Alpha virt. eigenvalues --    0.12522   0.13166   0.13292   0.14126   0.14253
 Alpha virt. eigenvalues --    0.14950   0.15113   0.15305   0.15857   0.16039
 Alpha virt. eigenvalues --    0.16307   0.16852   0.16939   0.17428   0.17702
 Alpha virt. eigenvalues --    0.18077   0.18454   0.18832   0.19011   0.19446
 Alpha virt. eigenvalues --    0.19936   0.20306   0.20565   0.20960   0.20991
 Alpha virt. eigenvalues --    0.21325   0.21479   0.21849   0.22483   0.22650
 Alpha virt. eigenvalues --    0.23110   0.23335   0.23638   0.23899   0.24197
 Alpha virt. eigenvalues --    0.24454   0.25168   0.25338   0.25506   0.25827
 Alpha virt. eigenvalues --    0.26024   0.26620   0.27446   0.27931   0.28273
 Alpha virt. eigenvalues --    0.28858   0.29162   0.29481   0.29698   0.30284
 Alpha virt. eigenvalues --    0.30759   0.30961   0.31803   0.31970   0.32115
 Alpha virt. eigenvalues --    0.32275   0.32818   0.33089   0.33608   0.34295
 Alpha virt. eigenvalues --    0.35102   0.35237   0.36049   0.36119   0.36850
 Alpha virt. eigenvalues --    0.37267   0.37929   0.38401   0.38774   0.38983
 Alpha virt. eigenvalues --    0.39280   0.39540   0.39935   0.40375   0.41048
 Alpha virt. eigenvalues --    0.41912   0.42264   0.42592   0.43305   0.43885
 Alpha virt. eigenvalues --    0.45093   0.45617   0.46782   0.48582   0.48930
 Alpha virt. eigenvalues --    0.51385   0.52066   0.54091   0.55420   0.57650
 Alpha virt. eigenvalues --    0.58228   0.59119   0.59388   0.60980   0.61451
 Alpha virt. eigenvalues --    0.62168   0.62519   0.63478   0.63883   0.64307
 Alpha virt. eigenvalues --    0.65076   0.66290   0.66536   0.66682   0.68134
 Alpha virt. eigenvalues --    0.68356   0.68766   0.69374   0.70159   0.70592
 Alpha virt. eigenvalues --    0.71194   0.71374   0.72134   0.73560   0.74381
 Alpha virt. eigenvalues --    0.74687   0.74755   0.75266   0.75966   0.76456
 Alpha virt. eigenvalues --    0.76787   0.77803   0.78111   0.79619   0.79868
 Alpha virt. eigenvalues --    0.81033   0.81832   0.82510   0.82675   0.82965
 Alpha virt. eigenvalues --    0.84055   0.84876   0.85388   0.86410   0.87015
 Alpha virt. eigenvalues --    0.87911   0.88409   0.89666   0.90815   0.92825
 Alpha virt. eigenvalues --    0.93882   0.94266   0.95033   0.95676   0.96409
 Alpha virt. eigenvalues --    0.97121   0.97859   0.98470   0.99282   0.99683
 Alpha virt. eigenvalues --    1.00690   1.01918   1.02124   1.03220   1.03677
 Alpha virt. eigenvalues --    1.04393   1.04867   1.06376   1.07496   1.08451
 Alpha virt. eigenvalues --    1.09333   1.10606   1.10935   1.13249   1.14067
 Alpha virt. eigenvalues --    1.14498   1.16065   1.17299   1.18673   1.19920
 Alpha virt. eigenvalues --    1.20584   1.21165   1.22451   1.23155   1.26294
 Alpha virt. eigenvalues --    1.27924   1.32863   1.33691   1.35964   1.37727
 Alpha virt. eigenvalues --    1.39597   1.41274   1.42811   1.45364   1.49133
 Alpha virt. eigenvalues --    1.49649   1.51139   1.52589   1.54794   1.55124
 Alpha virt. eigenvalues --    1.56805   1.57773   1.58871   1.60213   1.60453
 Alpha virt. eigenvalues --    1.61465   1.61732   1.62921   1.64200   1.65157
 Alpha virt. eigenvalues --    1.66648   1.67609   1.68496   1.69889   1.70242
 Alpha virt. eigenvalues --    1.70873   1.72972   1.74212   1.74996   1.75982
 Alpha virt. eigenvalues --    1.76693   1.77735   1.79077   1.80292   1.80693
 Alpha virt. eigenvalues --    1.81402   1.82232   1.83115   1.84550   1.85558
 Alpha virt. eigenvalues --    1.86190   1.89887   1.90386   1.90984   1.91981
 Alpha virt. eigenvalues --    1.93989   1.94043   1.95292   1.97215   1.98049
 Alpha virt. eigenvalues --    1.98236   1.98942   1.99783   2.01554   2.02878
 Alpha virt. eigenvalues --    2.04173   2.04466   2.05202   2.07200   2.07714
 Alpha virt. eigenvalues --    2.08565   2.09841   2.10941   2.14277   2.15089
 Alpha virt. eigenvalues --    2.15707   2.17182   2.17558   2.19833   2.20320
 Alpha virt. eigenvalues --    2.23567   2.24536   2.25443   2.27249   2.29067
 Alpha virt. eigenvalues --    2.29531   2.30741   2.34927   2.36995   2.37992
 Alpha virt. eigenvalues --    2.38558   2.43476   2.44617   2.45357   2.50841
 Alpha virt. eigenvalues --    2.51132   2.54336   2.55134   2.57193   2.57495
 Alpha virt. eigenvalues --    2.58277   2.59110   2.61913   2.64358   2.66235
 Alpha virt. eigenvalues --    2.66417   2.67337   2.69757   2.71684   2.72861
 Alpha virt. eigenvalues --    2.75209   2.75500   2.76212   2.77365   2.77976
 Alpha virt. eigenvalues --    2.78647   2.80572   2.81219   2.81568   2.83060
 Alpha virt. eigenvalues --    2.84366   2.84813   2.86555   2.86814   2.88027
 Alpha virt. eigenvalues --    2.89167   2.89704   2.90850   2.92490   2.93169
 Alpha virt. eigenvalues --    2.94801   2.95443   2.97129   2.98800   2.99636
 Alpha virt. eigenvalues --    3.00632   3.03510   3.03778   3.06313   3.07543
 Alpha virt. eigenvalues --    3.09780   3.11501   3.15667   3.18091   3.18846
 Alpha virt. eigenvalues --    3.20284   3.22258   3.27860   3.28215   3.31237
 Alpha virt. eigenvalues --    3.31704   3.35480   3.43994   3.47000   3.50649
 Alpha virt. eigenvalues --    3.51968   3.61556   3.61743   3.65161   3.65854
 Alpha virt. eigenvalues --    3.67525   3.68869   3.75050   3.78644   3.83925
 Alpha virt. eigenvalues --    3.86835   3.89492   3.91540   3.93970   3.95395
 Alpha virt. eigenvalues --    4.08751   4.12632   4.13731   4.16917   4.23415
 Alpha virt. eigenvalues --    4.28312   4.40543   4.45551   4.52928   4.87742
 Alpha virt. eigenvalues --    4.97112   4.99968   5.15890  14.81555  23.62934
 Alpha virt. eigenvalues --   23.80355  24.02405  24.04019  24.05731  24.08054
 Alpha virt. eigenvalues --   24.08989  24.10485  24.18111  24.23300  24.27888
 Alpha virt. eigenvalues --   24.30074  24.30649  24.48204  35.76056
          Condensed to atoms (all electrons):
               1          2          3          4          5          6
     1  C   11.614642   3.254956  -0.467220   0.423017  -0.691772  -0.542171
     2  C    3.254956  19.230801  -2.596125  -8.926574   1.902525  -0.048646
     3  C   -0.467220  -2.596125  11.037655   1.348245  -3.053348  -0.642606
     4  C    0.423017  -8.926574   1.348245  15.059033  -3.019251   0.394000
     5  C   -0.691772   1.902525  -3.053348  -3.019251   9.929797   0.616038
     6  C   -0.542171  -0.048646  -0.642606   0.394000   0.616038   8.273692
     7  C   -0.224715   0.093217  -1.032999  -0.055028   1.079982  -1.189623
     8  H   -0.011741   0.041433  -0.043312  -0.011847   0.409907   0.004586
     9  C   -1.250191  -1.041576   0.890700   0.768579  -1.808795  -0.850956
    10  H    0.003596   0.016146   0.006891  -0.022176  -0.089031   0.034724
    11  H   -0.024964  -0.025673   0.012132   0.043179  -0.019348  -0.054072
    12  C   -3.771186  -2.938421   1.201032  -0.988526   1.013006   0.386999
    13  H   -0.016025  -0.065282   0.002222  -0.026862   0.018323   0.002758
    14  C    0.279684   0.441609  -0.303512  -1.118794   0.220196   0.023191
    15  H   -0.018615   0.005943   0.001627  -0.020362   0.004879   0.000807
    16  C   -1.476818  -1.336763  -0.118545   1.544637  -0.225734  -0.074283
    17  C   -1.824588  -2.535922  -0.136962   1.028793   0.140235   0.168224
    18  H    0.058394   0.018625  -0.013854   0.003077   0.004887  -0.008940
    19  B    0.222306   0.110834   0.026899  -0.097804   0.024338  -0.051644
    20  N    0.118632  -0.112631  -0.118768  -0.059380   0.025857  -0.026765
    21  C    0.062402   0.067312  -0.026233  -0.031371   0.017292  -0.028467
    22  H    0.001812  -0.000099  -0.000573   0.004281   0.008114  -0.025350
    23  H   -0.003898   0.001007   0.000836  -0.013697  -0.003644   0.019384
    24  H    0.001919   0.009956  -0.000269  -0.001121   0.003213  -0.022336
    25  C    0.051010   0.020238   0.013690  -0.112005  -0.003468  -0.114458
    26  H   -0.039496  -0.028243  -0.011443   0.015086  -0.002151   0.023123
    27  H    0.043007   0.036856   0.024835  -0.011365   0.005813  -0.039130
    28  H   -0.049267  -0.103175  -0.041251   0.128070  -0.020591   0.077872
    29  H    0.202802   0.061465   0.024740  -0.007563   0.007248   0.013837
    30  H   -0.041323   0.009996   0.009286  -0.044543   0.006542  -0.022702
               7          8          9         10         11         12
     1  C   -0.224715  -0.011741  -1.250191   0.003596  -0.024964  -3.771186
     2  C    0.093217   0.041433  -1.041576   0.016146  -0.025673  -2.938421
     3  C   -1.032999  -0.043312   0.890700   0.006891   0.012132   1.201032
     4  C   -0.055028  -0.011847   0.768579  -0.022176   0.043179  -0.988526
     5  C    1.079982   0.409907  -1.808795  -0.089031  -0.019348   1.013006
     6  C   -1.189623   0.004586  -0.850956   0.034724  -0.054072   0.386999
     7  C    7.568875  -0.021092  -0.181326   0.405790  -0.092738  -0.150335
     8  H   -0.021092   0.452547  -0.013063  -0.009597   0.002120   0.003503
     9  C   -0.181326  -0.013063   9.387361  -0.031560   0.525407   0.238716
    10  H    0.405790  -0.009597  -0.031560   0.453321  -0.010121  -0.001711
    11  H   -0.092738   0.002120   0.525407  -0.010121   0.484736   0.009212
    12  C   -0.150335   0.003503   0.238716  -0.001711   0.009212   9.914906
    13  H   -0.000770   0.001201  -0.003524   0.000190  -0.000120   0.438343
    14  C    0.043962  -0.000664  -0.015001   0.000064   0.000001   0.677588
    15  H    0.000260   0.000228   0.000116  -0.000021   0.000040  -0.013699
    16  C   -0.007425   0.000806   0.000288  -0.000122  -0.001864  -0.916149
    17  C    0.153962   0.002018   0.050442   0.002251  -0.000509   1.301804
    18  H   -0.000414   0.000081  -0.004405   0.000016  -0.000099  -0.016815
    19  B   -0.002577   0.000052  -0.035521   0.000187  -0.001720   0.025650
    20  N    0.051320  -0.000028  -0.423719   0.000295  -0.035407  -0.016032
    21  C   -0.233219  -0.000848  -0.182111   0.000677   0.008828   0.014035
    22  H    0.017512   0.000102  -0.017157   0.000164  -0.008463  -0.001080
    23  H   -0.007041  -0.000074   0.048498   0.000026   0.005819   0.001314
    24  H   -0.005260  -0.000092   0.005464   0.000462  -0.010394  -0.000011
    25  C   -0.001463   0.000157  -0.040134   0.000447  -0.008038  -0.002309
    26  H    0.012001  -0.000003   0.010480   0.000086  -0.002017  -0.005303
    27  H   -0.023313   0.000034  -0.043958  -0.000547   0.002432   0.003790
    28  H    0.007048  -0.000022   0.019458   0.000146  -0.000120  -0.013377
    29  H   -0.003207  -0.000070  -0.009901  -0.000077   0.000551   0.013697
    30  H   -0.000199   0.000028  -0.010755   0.000025  -0.000153   0.020369
              13         14         15         16         17         18
     1  C   -0.016025   0.279684  -0.018615  -1.476818  -1.824588   0.058394
     2  C   -0.065282   0.441609   0.005943  -1.336763  -2.535922   0.018625
     3  C    0.002222  -0.303512   0.001627  -0.118545  -0.136962  -0.013854
     4  C   -0.026862  -1.118794  -0.020362   1.544637   1.028793   0.003077
     5  C    0.018323   0.220196   0.004879  -0.225734   0.140235   0.004887
     6  C    0.002758   0.023191   0.000807  -0.074283   0.168224  -0.008940
     7  C   -0.000770   0.043962   0.000260  -0.007425   0.153962  -0.000414
     8  H    0.001201  -0.000664   0.000228   0.000806   0.002018   0.000081
     9  C   -0.003524  -0.015001   0.000116   0.000288   0.050442  -0.004405
    10  H    0.000190   0.000064  -0.000021  -0.000122   0.002251   0.000016
    11  H   -0.000120   0.000001   0.000040  -0.001864  -0.000509  -0.000099
    12  C    0.438343   0.677588  -0.013699  -0.916149   1.301804  -0.016815
    13  H    0.440666  -0.026161  -0.003825   0.008176   0.013544   0.002467
    14  C   -0.026161   6.687335   0.398820  -0.284120  -0.836908  -0.013001
    15  H   -0.003825   0.398820   0.443724  -0.040721   0.015735  -0.009075
    16  C    0.008176  -0.284120  -0.040721   9.516622  -0.605179   0.415791
    17  C    0.013544  -0.836908   0.015735  -0.605179   9.311602  -0.120762
    18  H    0.002467  -0.013001  -0.009075   0.415791  -0.120762   0.478908
    19  B   -0.000458   0.126148   0.003119  -0.121134  -0.101768  -0.030854
    20  N    0.000361  -0.010847  -0.000209   0.041151   0.037933   0.001462
    21  C    0.000104  -0.001097   0.000006  -0.007378  -0.026766   0.000247
    22  H    0.000012  -0.000104  -0.000006   0.000654   0.000594   0.000034
    23  H    0.000003  -0.000186   0.000005  -0.001665  -0.001910  -0.000045
    24  H    0.000001  -0.000014  -0.000006   0.000088  -0.002077   0.000043
    25  C    0.000222   0.003202   0.000011  -0.017920  -0.053581   0.000393
    26  H   -0.000008   0.000430  -0.000047   0.021930   0.028322   0.000142
    27  H    0.000019   0.000769   0.000032  -0.013156  -0.033171   0.000056
    28  H   -0.000103  -0.007591  -0.000094   0.040185   0.119849  -0.001266
    29  H   -0.000330   0.004739   0.001004  -0.204484  -0.182873  -0.005348
    30  H    0.000437   0.016305  -0.001121   0.128454  -0.181222  -0.006594
              19         20         21         22         23         24
     1  C    0.222306   0.118632   0.062402   0.001812  -0.003898   0.001919
     2  C    0.110834  -0.112631   0.067312  -0.000099   0.001007   0.009956
     3  C    0.026899  -0.118768  -0.026233  -0.000573   0.000836  -0.000269
     4  C   -0.097804  -0.059380  -0.031371   0.004281  -0.013697  -0.001121
     5  C    0.024338   0.025857   0.017292   0.008114  -0.003644   0.003213
     6  C   -0.051644  -0.026765  -0.028467  -0.025350   0.019384  -0.022336
     7  C   -0.002577   0.051320  -0.233219   0.017512  -0.007041  -0.005260
     8  H    0.000052  -0.000028  -0.000848   0.000102  -0.000074  -0.000092
     9  C   -0.035521  -0.423719  -0.182111  -0.017157   0.048498   0.005464
    10  H    0.000187   0.000295   0.000677   0.000164   0.000026   0.000462
    11  H   -0.001720  -0.035407   0.008828  -0.008463   0.005819  -0.010394
    12  C    0.025650  -0.016032   0.014035  -0.001080   0.001314  -0.000011
    13  H   -0.000458   0.000361   0.000104   0.000012   0.000003   0.000001
    14  C    0.126148  -0.010847  -0.001097  -0.000104  -0.000186  -0.000014
    15  H    0.003119  -0.000209   0.000006  -0.000006   0.000005  -0.000006
    16  C   -0.121134   0.041151  -0.007378   0.000654  -0.001665   0.000088
    17  C   -0.101768   0.037933  -0.026766   0.000594  -0.001910  -0.002077
    18  H   -0.030854   0.001462   0.000247   0.000034  -0.000045   0.000043
    19  B    4.218968   0.032083   0.004266   0.001983  -0.003803  -0.000729
    20  N    0.032083   7.088908   0.316029  -0.043157  -0.064168  -0.047791
    21  C    0.004266   0.316029   5.360112   0.408135   0.394898   0.421559
    22  H    0.001983  -0.043157   0.408135   0.583779  -0.047122  -0.048884
    23  H   -0.003803  -0.064168   0.394898  -0.047122   0.502561  -0.009388
    24  H   -0.000729  -0.047791   0.421559  -0.048884  -0.009388   0.532555
    25  C    0.063252   0.266741  -0.160201  -0.004261  -0.003388   0.013003
    26  H   -0.006881  -0.057208  -0.017425   0.004177   0.000619  -0.002262
    27  H    0.014991  -0.065413   0.008955   0.013256  -0.004406   0.000166
    28  H   -0.071092  -0.078381  -0.005601  -0.005095   0.006623  -0.002993
    29  H    0.436734  -0.008508   0.004320  -0.001716   0.002602   0.000659
    30  H    0.504151   0.005838   0.000587   0.000053  -0.000422  -0.000005
              25         26         27         28         29         30
     1  C    0.051010  -0.039496   0.043007  -0.049267   0.202802  -0.041323
     2  C    0.020238  -0.028243   0.036856  -0.103175   0.061465   0.009996
     3  C    0.013690  -0.011443   0.024835  -0.041251   0.024740   0.009286
     4  C   -0.112005   0.015086  -0.011365   0.128070  -0.007563  -0.044543
     5  C   -0.003468  -0.002151   0.005813  -0.020591   0.007248   0.006542
     6  C   -0.114458   0.023123  -0.039130   0.077872   0.013837  -0.022702
     7  C   -0.001463   0.012001  -0.023313   0.007048  -0.003207  -0.000199
     8  H    0.000157  -0.000003   0.000034  -0.000022  -0.000070   0.000028
     9  C   -0.040134   0.010480  -0.043958   0.019458  -0.009901  -0.010755
    10  H    0.000447   0.000086  -0.000547   0.000146  -0.000077   0.000025
    11  H   -0.008038  -0.002017   0.002432  -0.000120   0.000551  -0.000153
    12  C   -0.002309  -0.005303   0.003790  -0.013377   0.013697   0.020369
    13  H    0.000222  -0.000008   0.000019  -0.000103  -0.000330   0.000437
    14  C    0.003202   0.000430   0.000769  -0.007591   0.004739   0.016305
    15  H    0.000011  -0.000047   0.000032  -0.000094   0.001004  -0.001121
    16  C   -0.017920   0.021930  -0.013156   0.040185  -0.204484   0.128454
    17  C   -0.053581   0.028322  -0.033171   0.119849  -0.182873  -0.181222
    18  H    0.000393   0.000142   0.000056  -0.001266  -0.005348  -0.006594
    19  B    0.063252  -0.006881   0.014991  -0.071092   0.436734   0.504151
    20  N    0.266741  -0.057208  -0.065413  -0.078381  -0.008508   0.005838
    21  C   -0.160201  -0.017425   0.008955  -0.005601   0.004320   0.000587
    22  H   -0.004261   0.004177   0.013256  -0.005095  -0.001716   0.000053
    23  H   -0.003388   0.000619  -0.004406   0.006623   0.002602  -0.000422
    24  H    0.013003  -0.002262   0.000166  -0.002993   0.000659  -0.000005
    25  C    5.449162   0.396375   0.456314   0.299113  -0.029512   0.003560
    26  H    0.396375   0.536827  -0.049873  -0.014270  -0.014757   0.002217
    27  H    0.456314  -0.049873   0.566265  -0.070468  -0.000899   0.000169
    28  H    0.299113  -0.014270  -0.070468   0.699728   0.030581  -0.011279
    29  H   -0.029512  -0.014757  -0.000899   0.030581   0.647375  -0.026560
    30  H    0.003560   0.002217   0.000169  -0.011279  -0.026560   0.648453
 Mulliken charges:
               1
     1  C    0.115811
     2  C    0.436210
     3  C    0.006232
     4  C   -0.191727
     5  C   -0.501059
     6  C   -0.297082
     7  C   -0.201186
     8  H    0.193650
     9  C    0.018144
    10  H    0.239459
    11  H    0.201363
    12  C   -0.429012
    13  H    0.214418
    14  C   -0.306046
    15  H    0.231446
    16  C   -0.265323
    17  C    0.268888
    18  H    0.246850
    19  B   -0.289979
    20  N    0.181803
    21  C   -0.369050
    22  H    0.158407
    23  H    0.180663
    24  H    0.164543
    25  C   -0.486152
    26  H    0.199571
    27  H    0.177941
    28  H    0.067359
    29  H    0.043449
    30  H   -0.009592
 Sum of Mulliken charges =  -0.00000
 Mulliken charges with hydrogens summed into heavy atoms:
               1
     1  C    0.115811
     2  C    0.436210
     3  C    0.006232
     4  C   -0.191727
     5  C   -0.307409
     6  C   -0.297082
     7  C    0.038272
     9  C    0.219507
    12  C   -0.214594
    14  C   -0.074600
    16  C   -0.018472
    17  C    0.268888
    19  B   -0.256121
    20  N    0.181803
    21  C    0.134563
    25  C   -0.041281
 Electronic spatial extent (au):  <R**2>=           9339.4941
 Charge=             -0.0000 electrons
 Dipole moment (field-independent basis, Debye):
    X=             -1.0874    Y=              1.6511    Z=             -0.1058  Tot=              1.9798
 Quadrupole moment (field-independent basis, Debye-Ang):
   XX=           -102.7319   YY=            -74.7260   ZZ=            -84.7229
   XY=             -3.4494   XZ=             -4.4037   YZ=              5.7232
 Traceless Quadrupole moment (field-independent basis, Debye-Ang):
   XX=            -15.3383   YY=             12.6676   ZZ=              2.6707
   XY=             -3.4494   XZ=             -4.4037   YZ=              5.7232
 Octapole moment (field-independent basis, Debye-Ang**2):
  XXX=           -480.1678  YYY=           -816.1779  ZZZ=            -39.9224  XYY=           -146.0800
  XXY=           -358.7012  XXZ=            -13.2315  XZZ=           -142.1941  YZZ=           -279.0168
  YYZ=             24.5661  XYZ=             -1.1269
 Hexadecapole moment (field-independent basis, Debye-Ang**3):
 XXXX=          -1886.7949 YYYY=          -8198.8454 ZZZZ=          -1793.0533 XXXY=          -1344.7195
 XXXZ=             89.4962 YYYX=          -1153.6906 YYYZ=           -114.9495 ZZZX=             15.9630
 ZZZY=           -288.4582 XXYY=          -2007.2146 XXZZ=           -638.7995 YYZZ=          -1636.8054
 XXYZ=            -88.3137 YYXZ=             39.9810 ZZXY=           -373.0853
 N-N= 9.943688463893D+02 E-N=-3.430339043885D+03  KE= 6.186665333291D+02
 Breneman (CHELPG) radii used.
 Generate Potential Derived Charges using the Breneman model, NDens= 1.
 Grid spacing= 0.300 Box extension= 2.800
 NStep X,Y,Z=   31     47     45   Total possible points=       65565
 Number of Points to Fit=   18045

 **********************************************************************

            Electrostatic Properties Using The SCF Density.

 **********************************************************************

       Atomic Center    1 is at   1.844560  2.460006 -0.178923
       Atomic Center    2 is at   1.811762  2.533153 -1.595974
       Atomic Center    3 is at   1.513277  4.005995 -1.509012
       Atomic Center    4 is at   1.495476  3.922676 -0.099608
       Atomic Center    5 is at   1.358295  5.177383 -2.197324
       Atomic Center    6 is at   1.250672  5.019858  0.707873
       Atomic Center    7 is at   1.157507  6.313938 -1.386086
       Atomic Center    8 is at   1.392539  5.250850 -3.276809
       Atomic Center    9 is at   1.099012  6.243028 -0.004732
       Atomic Center   10 is at   1.025764  7.282520 -1.856419
       Atomic Center   11 is at   0.912805  7.157019  0.544720
       Atomic Center   12 is at   2.060784  1.455533 -2.390916
       Atomic Center   13 is at   2.045173  1.500551 -3.473689
       Atomic Center   14 is at   2.358999  0.240059 -1.715769
       Atomic Center   15 is at   2.555104 -0.652123 -2.299854
       Atomic Center   16 is at   2.425946  0.179598 -0.342695
       Atomic Center   17 is at   2.189950  1.311675  0.510534
       Atomic Center   18 is at   2.685151 -0.763494  0.128096
       Atomic Center   19 is at   2.448013  1.236215  2.022989
       Atomic Center   20 is at   1.161746  4.930171  2.096187
       Atomic Center   21 is at   1.137492  6.164198  2.855844
       Atomic Center   22 is at   0.191136  6.718284  2.747114
       Atomic Center   23 is at   1.266375  5.922448  3.912604
       Atomic Center   24 is at   1.962799  6.811944  2.556166
       Atomic Center   25 is at   0.226166  3.939125  2.608924
       Atomic Center   26 is at   0.489752  3.679020  3.636498
       Atomic Center   27 is at  -0.805901  4.322507  2.595435
       Atomic Center   28 is at   0.260360  3.030684  2.010653
       Atomic Center   29 is at   2.382041  2.210406  2.708532
       Atomic Center   30 is at   2.759679  0.190029  2.515997
   18045 points will be used for fitting atomic charges
 Fitting point charges to electrostatic potential
 Charges from ESP fit, RMS=   0.00473 RRMS=   0.41438:
 ESP charges:
               1
     1  C    0.170672
     2  C    0.016974
     3  C    0.112539
     4  C   -0.243360
     5  C   -0.226729
     6  C    0.351965
     7  C   -0.071386
     8  H    0.133381
     9  C   -0.238965
    10  H    0.105874
    11  H    0.131039
    12  C   -0.154793
    13  H    0.128683
    14  C   -0.083403
    15  H    0.092831
    16  C   -0.142769
    17  C   -0.197441
    18  H    0.101109
    19  B    0.498485
    20  N   -0.343538
    21  C   -0.130007
    22  H    0.071065
    23  H    0.092998
    24  H    0.068912
    25  C    0.222105
    26  H    0.035918
    27  H   -0.038403
    28  H   -0.038880
    29  H   -0.231001
    30  H   -0.193873
 Sum of ESP charges =   0.00000
 ESP charges with hydrogens summed into heavy atoms:
               1
     1  C    0.170672
     2  C    0.016974
     3  C    0.112539
     4  C   -0.243360
     5  C   -0.093348
     6  C    0.351965
     7  C    0.034489
     9  C   -0.107926
    12  C   -0.026111
    14  C    0.009428
    16  C   -0.041660
    17  C   -0.197441
    19  B    0.073610
    20  N   -0.343538
    21  C    0.102967
    25  C    0.180741
 Charge=   0.00000 Dipole=    -1.0878     1.6265    -0.1595 Tot=     1.9632
 -----------------------------------------------------------------

              Electrostatic Properties (Atomic Units)

 -----------------------------------------------------------------
    Center     Electric         -------- Electric Field --------
               Potential          X             Y             Z
 -----------------------------------------------------------------
    1 Atom    -14.753399
    2 Atom    -14.763610
    3 Atom    -14.760857
    4 Atom    -14.768806
    5 Atom    -14.772387
    6 Atom    -14.724925
    7 Atom    -14.764931
    8 Atom     -1.098032
    9 Atom    -14.770044
   10 Atom     -1.100937
   11 Atom     -1.097782
   12 Atom    -14.762334
   13 Atom     -1.093250
   14 Atom    -14.772509
   15 Atom     -1.105142
   16 Atom    -14.772351
   17 Atom    -14.788161
   18 Atom     -1.111743
   19 Atom    -11.472929
   20 Atom    -18.372963
   21 Atom    -14.742536
   22 Atom     -1.108894
   23 Atom     -1.104520
   24 Atom     -1.104852
   25 Atom    -14.746816
   26 Atom     -1.111975
   27 Atom     -1.114646
   28 Atom     -1.110717
   29 Atom     -1.169258
   30 Atom     -1.168165
 -----------------------------------------------------------------
 Unable to Open any file for archive entry.
 1\1\GINC-IRENE4576\SP\RwB97XD\GenECP\C14H14B1N1\PENASFRA\10-Apr-2024\0
 \\# wb97xd/genecp scrf=(solvent=toluene,pcm) nosymm pop=(chelpg) scfcy
 c=300\\h_biphenylene_chelpg\\0,1\C,0,1.84456,2.460006,-0.178923\C,0,1.
 811762,2.533153,-1.595974\C,0,1.513277,4.005995,-1.509012\C,0,1.495476
 ,3.922676,-0.099608\C,0,1.358295,5.177383,-2.197324\C,0,1.250672,5.019
 858,0.707873\C,0,1.157507,6.313938,-1.386086\H,0,1.392539,5.25085,-3.2
 76809\C,0,1.099012,6.243028,-0.004732\H,0,1.025764,7.28252,-1.856419\H
 ,0,0.912805,7.157019,0.54472\C,0,2.060784,1.455533,-2.390916\H,0,2.045
 173,1.500551,-3.473689\C,0,2.358999,0.240059,-1.715769\H,0,2.555104,-0
 .652123,-2.299854\C,0,2.425946,0.179598,-0.342695\C,0,2.18995,1.311675
 ,0.510534\H,0,2.685151,-0.763494,0.128096\B,0,2.448013,1.236215,2.0229
 89\N,0,1.161746,4.930171,2.096187\C,0,1.137492,6.164198,2.855844\H,0,0
 .191136,6.718284,2.747114\H,0,1.266375,5.922448,3.912604\H,0,1.962799,
 6.811944,2.556166\C,0,0.226166,3.939125,2.608924\H,0,0.489752,3.67902,
 3.636498\H,0,-0.805901,4.322507,2.595435\H,0,0.26036,3.030684,2.010653
 \H,0,2.382041,2.210406,2.708532\H,0,2.759679,0.190029,2.515997\\Versio
 n=AS64L-G16RevC.02\HF=-621.3722046\RMSD=7.137e-09\Dipole=-0.4278062,0.
 6495881,-0.0416156\Quadrupole=-11.4036371,9.4180664,1.9855707,-2.56456
 84,-3.2740602,4.2550489\PG=C01 [X(C14H14B1N1)]\\@
 The archive entry for this job was punched.


 E PUR SI MUOVE    -- GALILEO GALILEI
 Job cpu time:       0 days  1 hours  5 minutes 55.9 seconds.
 Elapsed time:       0 days  0 hours  0 minutes 43.4 seconds.
 File lengths (MBytes):  RWF=    196 Int=      0 D2E=      0 Chk=     14 Scr=      1
 Normal termination of Gaussian 16 at Wed Apr 10 17:02:28 2024.
