 Entering Gaussian System, Link 0=/ccc/products/gaussian-16-C.02/system/default/g16/g16
 Input=h_dibenzofuran_chelpg.gjf
 Output=h_dibenzofuran_chelpg.log
 Initial command:
 /ccc/products/gaussian-16-C.02/system/default/g16/l1.exe "/ccc/scratch/cont003/gen7343/penasfra/flp/b-n_flp/h_dibenzofuran/reac/Gau-368515.inp" -scrdir="/ccc/scratch/cont003/gen7343/penasfra/flp/b-n_flp/h_dibenzofuran/reac/"
 Entering Link 1 = /ccc/products/gaussian-16-C.02/system/default/g16/l1.exe PID=    368564.
  
 Copyright (c) 1988-2021, Gaussian, Inc.  All Rights Reserved.
  
 This is part of the Gaussian(R) 16 program.  It is based on
 the Gaussian(R) 09 system (copyright 2009, Gaussian, Inc.),
 the Gaussian(R) 03 system (copyright 2003, Gaussian, Inc.),
 the Gaussian(R) 98 system (copyright 1998, Gaussian, Inc.),
 the Gaussian(R) 94 system (copyright 1995, Gaussian, Inc.),
 the Gaussian 92(TM) system (copyright 1992, Gaussian, Inc.),
 the Gaussian 90(TM) system (copyright 1990, Gaussian, Inc.),
 the Gaussian 88(TM) system (copyright 1988, Gaussian, Inc.),
 the Gaussian 86(TM) system (copyright 1986, Carnegie Mellon
 University), and the Gaussian 82(TM) system (copyright 1983,
 Carnegie Mellon University). Gaussian is a federally registered
 trademark of Gaussian, Inc.
  
 This software contains proprietary and confidential information,
 including trade secrets, belonging to Gaussian, Inc.
  
 This software is provided under written license and may be
 used, copied, transmitted, or stored only in accord with that
 written license.
  
 The following legend is applicable only to US Government
 contracts under FAR:
  
                    RESTRICTED RIGHTS LEGEND
  
 Use, reproduction and disclosure by the US Government is
 subject to restrictions as set forth in subparagraphs (a)
 and (c) of the Commercial Computer Software - Restricted
 Rights clause in FAR 52.227-19.
  
 Gaussian, Inc.
 340 Quinnipiac St., Bldg. 40, Wallingford CT 06492
  
  
 ---------------------------------------------------------------
 Warning -- This program may not be used in any manner that
 competes with the business of Gaussian, Inc. or will provide
 assistance to any competitor of Gaussian, Inc.  The licensee
 of this program is prohibited from giving any competitor of
 Gaussian, Inc. access to this program.  By using this program,
 the user acknowledges that Gaussian, Inc. is engaged in the
 business of creating and licensing software in the field of
 computational chemistry and represents and warrants to the
 licensee that it is not a competitor of Gaussian, Inc. and that
 it will not use this program in any manner prohibited above.
 ---------------------------------------------------------------
  

 Cite this work as:
 Gaussian 16, Revision C.02,
 M. J. Frisch, G. W. Trucks, H. B. Schlegel, G. E. Scuseria, 
 M. A. Robb, J. R. Cheeseman, G. Scalmani, V. Barone, 
 G. A. Petersson, H. Nakatsuji, X. Li, M. Caricato, A. V. Marenich, 
 J. Bloino, B. G. Janesko, R. Gomperts, B. Mennucci, H. P. Hratchian, 
 J. V. Ortiz, A. F. Izmaylov, J. L. Sonnenberg, D. Williams-Young, 
 F. Ding, F. Lipparini, F. Egidi, J. Goings, B. Peng, A. Petrone, 
 T. Henderson, D. Ranasinghe, V. G. Zakrzewski, J. Gao, N. Rega, 
 G. Zheng, W. Liang, M. Hada, M. Ehara, K. Toyota, R. Fukuda, 
 J. Hasegawa, M. Ishida, T. Nakajima, Y. Honda, O. Kitao, H. Nakai, 
 T. Vreven, K. Throssell, J. A. Montgomery, Jr., J. E. Peralta, 
 F. Ogliaro, M. J. Bearpark, J. J. Heyd, E. N. Brothers, K. N. Kudin, 
 V. N. Staroverov, T. A. Keith, R. Kobayashi, J. Normand, 
 K. Raghavachari, A. P. Rendell, J. C. Burant, S. S. Iyengar, 
 J. Tomasi, M. Cossi, J. M. Millam, M. Klene, C. Adamo, R. Cammi, 
 J. W. Ochterski, R. L. Martin, K. Morokuma, O. Farkas, 
 J. B. Foresman, and D. J. Fox, Gaussian, Inc., Wallingford CT, 2019.
 
 ******************************************
 Gaussian 16:  AS64L-G16RevC.02  7-Dec-2021
                10-Apr-2024 
 ******************************************
 %nprocshared=128
 Will use up to  128 processors via shared memory.
 %mem=30GB
 %chk=h_dibenzofuran_chelpg.chk
 ----------------------------------------------------------------------
 # wb97xd/genecp scrf=(solvent=toluene,pcm) nosymm pop=(chelpg) scfcyc=
 300
 ----------------------------------------------------------------------
 1/38=1,172=1/1;
 2/12=2,15=1,17=6,18=5,40=1/2;
 3/5=7,11=2,16=1,17=8,25=1,30=1,70=2201,72=13,74=-58/1,2,3;
 4//1;
 5/5=2,7=300,38=5,53=13/2;
 6/7=2,8=2,9=2,10=2,15=8,20=3,28=1/1,2;
 99/5=1,9=1/99;
 ---------------------
 h_dibenzofuran_chelpg
 ---------------------
 Symbolic Z-matrix:
 Charge =  0 Multiplicity = 1
 C                     2.0982    2.16243   0.19006 
 C                     1.90974   2.53506  -1.14448 
 O                     1.6176    3.11311   1.03412 
 C                     1.25707   3.82999  -1.10485 
 C                     1.11741   4.12259   0.24934 
 C                     0.76898   4.71136  -2.07061 
 C                     0.51001   5.28816   0.73853 
 C                     0.1536    5.86494  -1.62062 
 H                     0.8609    4.49509  -3.12797 
 C                     0.0327    6.15065  -0.2546 
 H                    -0.2419    6.57805  -2.33503 
 H                    -0.44644   7.07683   0.03416 
 C                     2.33699   1.6784   -2.1543 
 H                     2.20092   1.9435   -3.19702 
 C                     2.94189   0.47625  -1.8028 
 H                     3.27989  -0.20149  -2.57774 
 C                     3.11634   0.13635  -0.46213 
 C                     2.70196   0.96678   0.5961 
 H                     3.59201  -0.80687  -0.21415 
 B                     2.91453   0.56775   2.06458 
 N                     0.35777   5.51639   2.10965 
 C                     1.56376   5.42333   2.92641 
 H                     2.22428   6.29073   2.77263 
 H                     1.27586   5.39059   3.97911 
 H                     2.11576   4.5146    2.69902 
 C                    -0.4864    6.62954   2.49574 
 H                    -0.65549   6.57755   3.57274 
 H                    -0.03839   7.61071   2.26846 
 H                    -1.45541   6.56196   1.99803 
 H                     2.57302   1.28167   2.95802 
 H                     3.43736  -0.48036   2.30829 
 
                          Input orientation:                          
 ---------------------------------------------------------------------
 Center     Atomic      Atomic             Coordinates (Angstroms)
 Number     Number       Type             X           Y           Z
 ---------------------------------------------------------------------
      1          6           0        2.098202    2.162435    0.190060
      2          6           0        1.909744    2.535057   -1.144476
      3          8           0        1.617597    3.113109    1.034120
      4          6           0        1.257066    3.829993   -1.104848
      5          6           0        1.117407    4.122590    0.249344
      6          6           0        0.768975    4.711360   -2.070608
      7          6           0        0.510008    5.288157    0.738529
      8          6           0        0.153600    5.864935   -1.620623
      9          1           0        0.860901    4.495085   -3.127973
     10          6           0        0.032695    6.150650   -0.254598
     11          1           0       -0.241899    6.578051   -2.335033
     12          1           0       -0.446437    7.076834    0.034163
     13          6           0        2.336990    1.678403   -2.154298
     14          1           0        2.200922    1.943500   -3.197021
     15          6           0        2.941886    0.476251   -1.802804
     16          1           0        3.279885   -0.201485   -2.577736
     17          6           0        3.116338    0.136354   -0.462129
     18          6           0        2.701963    0.966784    0.596098
     19          1           0        3.592014   -0.806867   -0.214150
     20          5           0        2.914529    0.567746    2.064581
     21          7           0        0.357769    5.516393    2.109648
     22          6           0        1.563758    5.423326    2.926406
     23          1           0        2.224276    6.290725    2.772634
     24          1           0        1.275855    5.390594    3.979110
     25          1           0        2.115762    4.514596    2.699022
     26          6           0       -0.486400    6.629538    2.495735
     27          1           0       -0.655492    6.577546    3.572736
     28          1           0       -0.038390    7.610706    2.268463
     29          1           0       -1.455414    6.561955    1.998029
     30          1           0        2.573018    1.281674    2.958018
     31          1           0        3.437358   -0.480359    2.308291
 ---------------------------------------------------------------------
                    Distance matrix (angstroms):
                    1          2          3          4          5
     1  C    0.000000
     2  C    1.398338   0.000000
     3  O    1.359117   2.272834   0.000000
     4  C    2.272674   1.450661   2.284533   0.000000
     5  C    2.192642   2.256279   1.372995   1.392463   0.000000
     6  C    3.657114   2.625903   3.593592   1.395612   2.418725
     7  C    3.548706   3.617254   2.458650   2.466247   1.402420
     8  C    4.557253   3.794581   4.094325   2.371634   2.731569
     9  H    4.240461   2.979269   4.450333   2.166178   3.407465
    10  C    4.513302   4.169857   3.660514   2.758162   2.354482
    11  H    5.599092   4.732102   5.178295   3.363343   3.815233
    12  H    5.536317   5.250573   4.579440   3.839433   3.349548
    13  C    2.405685   1.391451   3.569582   2.626199   3.638534
    14  H    3.395703   2.155844   4.428409   2.971011   4.218989
    15  C    2.743451   2.395286   4.093275   3.817505   4.564627
    16  H    3.826903   3.379376   5.176412   4.744893   5.600564
    17  C    2.359440   2.770423   3.653225   4.184848   4.515750
    18  C    1.399634   2.473194   2.444263   3.630277   3.548263
    19  H    3.348375   3.855385   4.563191   5.267428   5.535165
    20  B    2.592923   3.895889   3.036899   4.840942   4.377402
    21  N    4.238273   4.678281   2.918853   3.739741   2.445499
    22  C    4.290295   5.003387   2.986762   4.345547   3.009619
    23  H    4.871177   5.435782   3.672565   4.693140   3.506132
    24  H    5.045212   5.899749   3.738541   5.318125   3.942600
    25  H    3.439166   4.328221   2.232540   3.959226   2.674192
    26  C    5.652549   5.979751   4.350677   4.882758   3.728707
    27  H    6.206330   6.721179   4.859406   5.752105   4.496100
    28  H    6.210350   6.419158   4.949169   5.229840   4.192811
    29  H    5.937400   6.116824   4.718798   4.944594   3.953202
    30  H    2.943260   4.340663   2.822830   4.973182   4.186469
    31  H    3.642060   4.831970   4.224696   5.914586   5.550547
                    6          7          8          9         10
     6  C    0.000000
     7  C    2.879411   0.000000
     8  C    1.382718   2.454648   0.000000
     9  H    1.083165   3.962566   2.156123   0.000000
    10  C    2.431369   1.399294   1.400812   3.418056   0.000000
    11  H    2.139234   3.417012   1.084129   2.486698   2.141561
    12  H    3.391571   2.147157   2.137068   4.286451   1.082020
    13  C    3.415334   4.973594   4.751742   3.325745   5.377697
    14  H    3.313658   5.434563   4.696191   2.882882   5.573076
    15  C    4.767537   5.960440   6.070061   4.715676   6.561946
    16  H    5.540568   6.986129   6.891384   5.311498   7.502722
    17  C    5.387764   5.897085   6.552600   5.585003   6.761929
    18  C    4.986944   4.847599   5.949781   5.450424   5.892465
    19  H    6.470457   6.896062   7.636347   6.637774   7.815205
    20  B    6.234800   5.460990   7.018808   6.826712   6.697192
    21  N    4.276881   1.398297   3.752078   5.359933   2.469335
    22  C    5.109670   2.432173   4.781113   6.165318   3.604433
    23  H    5.298046   2.842787   4.875418   6.316667   3.739891
    24  H    6.108795   3.331423   5.730747   7.175288   4.477434
    25  H    4.960032   2.649599   4.932832   5.960615   3.967331
    26  C    5.109487   2.424852   4.235401   6.164187   2.839564
    27  H    6.112208   3.324702   5.304095   7.178829   3.912075
    28  H    5.280680   2.834726   4.267267   6.295819   2.915931
    29  H    4.992636   2.659283   4.021120   5.992759   2.730928
    30  H    6.348574   5.023350   6.915477   7.092013   6.362474
    31  H    7.297189   6.656524   8.153661   7.806801   7.882285
                   11         12         13         14         15
    11  H    0.000000
    12  H    2.429755   0.000000
    13  C    5.539845   6.455996   0.000000
    14  H    5.309375   6.618170   1.084464   0.000000
    15  C    6.903022   7.643486   1.390905   2.155386   0.000000
    16  H    7.643558   8.583788   2.145304   2.479644   1.083554
    17  C    7.502065   7.817284   2.418416   3.403439   1.394049
    18  C    6.981702   6.896441   2.864312   3.948768   2.460268
    19  H    8.586853   8.861348   3.393498   4.289193   2.143100
    20  B    8.089710   7.601771   4.400687   5.485106   3.868564
    21  N    4.608895   2.718338   6.068667   6.657591   6.883892
    22  C    5.681243   3.891021   6.358922   7.071883   6.981276
    23  H    5.679158   3.905112   6.749880   7.384828   7.433553
    24  H    6.601669   4.623019   7.247418   8.014678   7.768974
    25  H    5.929428   4.497933   5.625624   6.432815   6.103863
    26  C    4.837226   2.502201   7.355819   7.847810   8.251880
    27  H    5.922229   3.579733   8.108975   8.686950   8.891758
    28  H    4.722284   2.333156   7.771452   8.185552   8.738290
    29  H    4.499812   2.267136   7.448035   7.854137   8.415365
    30  H    7.999485   7.158905   5.133116   6.201691   4.842540
    31  H    9.215126   8.795834   5.077968   6.141036   4.249906
                   16         17         18         19         20
    16  H    0.000000
    17  C    2.148645   0.000000
    18  C    3.431045   1.407539   0.000000
    19  H    2.459766   1.085093   2.143486   0.000000
    20  B    4.719778   2.571204   1.536508   2.746118   0.000000
    21  N    7.950123   6.570278   5.337136   7.472884   5.570293
    22  C    8.054761   6.468752   5.156221   7.265825   5.113119
    23  H    8.478771   7.009690   5.771468   7.820959   5.807777
    24  H    8.847582   7.121729   5.748795   7.833042   5.441556
    25  H    7.172223   5.492088   4.165680   6.243706   4.076539
    26  C    9.305261   7.993129   6.770603   8.903766   6.964017
    27  H    9.963471   8.485033   7.184256   9.322627   7.151033
    28  H    9.773787   8.560046   7.378891   9.497301   7.639672
    29  H    9.439534   8.260850   7.110213   9.201620   7.418313
    30  H    5.774426   3.647514   2.386304   3.932303   1.193546
    31  H    4.896512   2.856329   2.359371   2.548183   1.196356
                   21         22         23         24         25
    21  N    0.000000
    22  C    1.459508   0.000000
    23  H    2.126732   1.101050   0.000000
    24  H    2.086527   1.091854   1.779135   0.000000
    25  H    2.107486   1.087291   1.780963   1.763928   0.000000
    26  C    1.449405   2.417348   2.745766   2.615516   3.359398
    27  H    2.072045   2.583609   3.002581   2.303062   3.563564
    28  H    2.137361   2.790053   2.667620   3.095553   3.796268
    29  H    2.096018   3.357642   3.770106   3.571638   4.175688
    30  H    4.853855   4.262967   5.024598   4.428147   3.275354
    31  H    6.744210   6.224624   6.894546   6.475478   5.181589
                   26         27         28         29         30
    26  C    0.000000
    27  H    1.091433   0.000000
    28  H    1.102296   1.774644   0.000000
    29  H    1.091452   1.766301   1.783527   0.000000
    30  H    6.178462   6.232769   6.881249   6.710530   0.000000
    31  H    8.122909   8.256165   8.806120   8.580773   2.067363
                   31
    31  H    0.000000
 Symmetry turned off by external request.
 Stoichiometry    C14H14BNO
 Framework group  C1[X(C14H14BNO)]
 Deg. of freedom    87
 Full point group                 C1      NOp   1
 Rotational constants (GHZ):           0.8968730           0.3591157           0.2612263
 General basis read from cards:  (5D, 7F)
 ======================================================================================================
                                       Pseudopotential Parameters
 ======================================================================================================
  Center     Atomic      Valence      Angular      Power
  Number     Number     Electrons     Momentum     of R      Exponent        Coefficient   SO-Coeffient
 ======================================================================================================
    1          6
                                   No pseudopotential on this center.
    2          6
                                   No pseudopotential on this center.
    3          8
                                   No pseudopotential on this center.
    4          6
                                   No pseudopotential on this center.
    5          6
                                   No pseudopotential on this center.
    6          6
                                   No pseudopotential on this center.
    7          6
                                   No pseudopotential on this center.
    8          6
                                   No pseudopotential on this center.
    9          1
                                   No pseudopotential on this center.
   10          6
                                   No pseudopotential on this center.
   11          1
                                   No pseudopotential on this center.
   12          1
                                   No pseudopotential on this center.
   13          6
                                   No pseudopotential on this center.
   14          1
                                   No pseudopotential on this center.
   15          6
                                   No pseudopotential on this center.
   16          1
                                   No pseudopotential on this center.
   17          6
                                   No pseudopotential on this center.
   18          6
                                   No pseudopotential on this center.
   19          1
                                   No pseudopotential on this center.
   20          5
                                   No pseudopotential on this center.
   21          7
                                   No pseudopotential on this center.
   22          6
                                   No pseudopotential on this center.
   23          1
                                   No pseudopotential on this center.
   24          1
                                   No pseudopotential on this center.
   25          1
                                   No pseudopotential on this center.
   26          6
                                   No pseudopotential on this center.
   27          1
                                   No pseudopotential on this center.
   28          1
                                   No pseudopotential on this center.
   29          1
                                   No pseudopotential on this center.
   30          1
                                   No pseudopotential on this center.
   31          1
                                   No pseudopotential on this center.
 ======================================================================================================
   472 basis functions,   738 primitive gaussians,   489 cartesian basis functions
    59 alpha electrons       59 beta electrons
       nuclear repulsion energy      1124.9408196192 Hartrees.
 NAtoms=   31 NActive=   31 NUniq=   31 SFac= 1.00D+00 NAtFMM=   60 NAOKFM=F Big=F
 Integral buffers will be    131072 words long.
 Raffenetti 2 integral format.
 Two-electron integral symmetry is turned off.
 Nuclear repulsion after empirical dispersion term =     1124.9197759124 Hartrees.
 ------------------------------------------------------------------------------
 Polarizable Continuum Model (PCM)
 =================================
 Model                : PCM.
 Atomic radii         : UFF (Universal Force Field).
 Polarization charges : Total charges.
 Charge compensation  : None.
 Solution method      : On-the-fly selection.
 Cavity type          : Scaled VdW (van der Waals Surface) (Alpha=1.100).
 Cavity algorithm     : GePol (No added spheres)
                        Default sphere list used, NSphG=   31.
                        Lebedev-Laikov grids with approx.  5.0 points / Ang**2.
                        Smoothing algorithm: York/Karplus (Gamma=1.0000).
                        Polarization charges: spherical gaussians, with
                                              point-specific exponents (IZeta= 3).
                        Self-potential: point-specific (ISelfS= 7).
                        Self-field    : sphere-specific E.n sum rule (ISelfD= 2).
 Solvent              : Toluene, Eps=   2.374100 Eps(inf)=   2.238315
 ------------------------------------------------------------------------------
 One-electron integrals computed using PRISM.
   1 Symmetry operations used in ECPInt.
 ECPInt:  NShTT=   14878 NPrTT=   51388 LenC2=   13682 LenP2D=   33210.
 LDataN:  DoStor=T MaxTD1= 4 Len=   56
 Number of processors reduced to  97 by ecpmxn.
 NBasis=   472 RedAO= T EigKep=  1.18D-06  NBF=   472
 NBsUse=   467 1.00D-06 EigRej=  5.81D-07 NBFU=   467
 ExpMin= 3.15D-02 ExpMax= 8.59D+03 ExpMxC= 1.30D+03 IAcc=3 IRadAn=         5 AccDes= 0.00D+00
 Harris functional with IExCor= 4639 and IRadAn=       5 diagonalized for initial guess.
 HarFok:  IExCor= 4639 AccDes= 0.00D+00 IRadAn=         5 IDoV= 1 UseB2=F ITyADJ=14
 ICtDFT=  3500011 ScaDFX=  1.000000  1.000000  1.000000  1.000000
 FoFCou: FMM=F IPFlag=           0 FMFlag=      100000 FMFlg1=           0
         NFxFlg=           0 DoJE=T BraDBF=F KetDBF=T FulRan=T
         wScrn=  0.000000 ICntrl=       500 IOpCl=  0 I1Cent=   200000004 NGrid=           0
         NMat0=    1 NMatS0=      1 NMatT0=    0 NMatD0=    1 NMtDS0=    0 NMtDT0=    0
 Symmetry not used in FoFCou.
 Requested convergence on RMS density matrix=1.00D-08 within 300 cycles.
 Requested convergence on MAX density matrix=1.00D-06.
 Requested convergence on             energy=1.00D-06.
 No special actions if energy rises.
 Inv3:  Mode=1 IEnd=    16964652.
 Iteration    1 A*A^-1 deviation from unit magnitude is 6.55D-15 for   2374.
 Iteration    1 A*A^-1 deviation from orthogonality  is 2.08D-15 for   1919   1116.
 Iteration    1 A^-1*A deviation from unit magnitude is 6.55D-15 for   2374.
 Iteration    1 A^-1*A deviation from orthogonality  is 1.74D-15 for   2374   2286.
 Error on total polarization charges =  0.01106
 SCF Done:  E(RwB97XD) =  -696.668724354     A.U. after   16 cycles
            NFock= 16  Conv=0.73D-08     -V/T= 2.0042

 **********************************************************************

            Population analysis using the SCF Density.

 **********************************************************************

 Alpha  occ. eigenvalues --  -19.31856 -14.45000 -10.36091 -10.35018 -10.33746
 Alpha  occ. eigenvalues --  -10.31186 -10.30831 -10.30614 -10.30579 -10.30407
 Alpha  occ. eigenvalues --  -10.30385 -10.29565 -10.29197 -10.29127 -10.29017
 Alpha  occ. eigenvalues --  -10.28402  -6.85127  -1.22785  -1.05394  -0.97714
 Alpha  occ. eigenvalues --   -0.96230  -0.89442  -0.87207  -0.84669  -0.83812
 Alpha  occ. eigenvalues --   -0.81398  -0.76663  -0.74002  -0.72407  -0.69950
 Alpha  occ. eigenvalues --   -0.67162  -0.63164  -0.62239  -0.60261  -0.58558
 Alpha  occ. eigenvalues --   -0.57285  -0.57047  -0.55384  -0.55132  -0.54809
 Alpha  occ. eigenvalues --   -0.53218  -0.51339  -0.50331  -0.48749  -0.48418
 Alpha  occ. eigenvalues --   -0.47669  -0.46593  -0.46380  -0.45662  -0.45310
 Alpha  occ. eigenvalues --   -0.44951  -0.43652  -0.41524  -0.40910  -0.38785
 Alpha  occ. eigenvalues --   -0.36253  -0.32833  -0.30629  -0.27914
 Alpha virt. eigenvalues --   -0.01675   0.03169   0.03953   0.04496   0.05026
 Alpha virt. eigenvalues --    0.05835   0.06073   0.06214   0.06922   0.07189
 Alpha virt. eigenvalues --    0.07479   0.07736   0.08016   0.08516   0.09297
 Alpha virt. eigenvalues --    0.09663   0.10194   0.10522   0.11047   0.11968
 Alpha virt. eigenvalues --    0.12099   0.12605   0.13125   0.13485   0.13936
 Alpha virt. eigenvalues --    0.14583   0.14702   0.15308   0.15388   0.15861
 Alpha virt. eigenvalues --    0.15958   0.16418   0.16753   0.17143   0.17597
 Alpha virt. eigenvalues --    0.17792   0.18564   0.18638   0.18858   0.19349
 Alpha virt. eigenvalues --    0.19788   0.20005   0.20089   0.20383   0.21058
 Alpha virt. eigenvalues --    0.21061   0.21286   0.21681   0.22144   0.22467
 Alpha virt. eigenvalues --    0.22718   0.23050   0.23471   0.23542   0.24145
 Alpha virt. eigenvalues --    0.24736   0.25168   0.25347   0.25684   0.26152
 Alpha virt. eigenvalues --    0.26254   0.26768   0.27026   0.27414   0.27512
 Alpha virt. eigenvalues --    0.27999   0.28126   0.28435   0.29134   0.29764
 Alpha virt. eigenvalues --    0.29986   0.30504   0.30817   0.31111   0.31235
 Alpha virt. eigenvalues --    0.31573   0.31785   0.32619   0.33364   0.33471
 Alpha virt. eigenvalues --    0.34339   0.34540   0.34795   0.35393   0.35691
 Alpha virt. eigenvalues --    0.36425   0.36883   0.37067   0.37463   0.37743
 Alpha virt. eigenvalues --    0.38339   0.38888   0.39227   0.39569   0.39967
 Alpha virt. eigenvalues --    0.40637   0.41051   0.41204   0.42030   0.42358
 Alpha virt. eigenvalues --    0.42728   0.43071   0.44145   0.45530   0.46155
 Alpha virt. eigenvalues --    0.46725   0.47291   0.48425   0.48890   0.50443
 Alpha virt. eigenvalues --    0.50947   0.51827   0.52431   0.54504   0.57285
 Alpha virt. eigenvalues --    0.58763   0.59230   0.60820   0.61037   0.61305
 Alpha virt. eigenvalues --    0.61944   0.62351   0.63062   0.63867   0.64180
 Alpha virt. eigenvalues --    0.65106   0.65873   0.66371   0.66794   0.67074
 Alpha virt. eigenvalues --    0.67345   0.67876   0.68602   0.69745   0.70152
 Alpha virt. eigenvalues --    0.70622   0.71079   0.72001   0.72770   0.73376
 Alpha virt. eigenvalues --    0.74001   0.74478   0.74683   0.75240   0.75628
 Alpha virt. eigenvalues --    0.76559   0.76683   0.77775   0.78739   0.79497
 Alpha virt. eigenvalues --    0.80139   0.80592   0.82167   0.83003   0.83827
 Alpha virt. eigenvalues --    0.84155   0.84716   0.85623   0.86746   0.87730
 Alpha virt. eigenvalues --    0.88184   0.88242   0.89708   0.91188   0.91244
 Alpha virt. eigenvalues --    0.93400   0.93944   0.94706   0.95206   0.95694
 Alpha virt. eigenvalues --    0.96038   0.96808   0.97093   0.97852   0.99225
 Alpha virt. eigenvalues --    0.99588   1.00942   1.02469   1.02927   1.03830
 Alpha virt. eigenvalues --    1.04268   1.05115   1.06767   1.07371   1.08498
 Alpha virt. eigenvalues --    1.09873   1.10391   1.11058   1.12266   1.12502
 Alpha virt. eigenvalues --    1.13592   1.14515   1.15124   1.16681   1.17971
 Alpha virt. eigenvalues --    1.19173   1.19920   1.20558   1.22187   1.22455
 Alpha virt. eigenvalues --    1.22732   1.26748   1.27612   1.29260   1.34470
 Alpha virt. eigenvalues --    1.35963   1.35995   1.37703   1.38428   1.39210
 Alpha virt. eigenvalues --    1.41658   1.44097   1.44844   1.46378   1.47832
 Alpha virt. eigenvalues --    1.49486   1.51399   1.53109   1.54470   1.54984
 Alpha virt. eigenvalues --    1.58305   1.59844   1.61453   1.61817   1.62336
 Alpha virt. eigenvalues --    1.63205   1.63592   1.64975   1.65527   1.67196
 Alpha virt. eigenvalues --    1.67515   1.68760   1.69582   1.70167   1.71926
 Alpha virt. eigenvalues --    1.72467   1.72717   1.73821   1.75809   1.76228
 Alpha virt. eigenvalues --    1.77062   1.77459   1.79073   1.79953   1.80519
 Alpha virt. eigenvalues --    1.81439   1.82429   1.83184   1.84144   1.84682
 Alpha virt. eigenvalues --    1.87873   1.88700   1.90141   1.90382   1.92462
 Alpha virt. eigenvalues --    1.93870   1.93947   1.95496   1.96150   1.97807
 Alpha virt. eigenvalues --    1.98257   1.99552   2.00037   2.00945   2.03275
 Alpha virt. eigenvalues --    2.03422   2.03792   2.05041   2.05821   2.07120
 Alpha virt. eigenvalues --    2.08404   2.08781   2.10331   2.11965   2.14821
 Alpha virt. eigenvalues --    2.14910   2.16074   2.16998   2.17350   2.19870
 Alpha virt. eigenvalues --    2.22098   2.22615   2.25369   2.27073   2.28957
 Alpha virt. eigenvalues --    2.30443   2.31124   2.31513   2.33486   2.36518
 Alpha virt. eigenvalues --    2.37227   2.37804   2.39372   2.43758   2.46125
 Alpha virt. eigenvalues --    2.50107   2.51599   2.52980   2.55541   2.56274
 Alpha virt. eigenvalues --    2.57515   2.59080   2.61328   2.61881   2.64945
 Alpha virt. eigenvalues --    2.66111   2.66308   2.67043   2.68545   2.71436
 Alpha virt. eigenvalues --    2.74867   2.75314   2.76013   2.76532   2.77476
 Alpha virt. eigenvalues --    2.78799   2.79621   2.81071   2.81408   2.82949
 Alpha virt. eigenvalues --    2.83549   2.85640   2.86031   2.86346   2.87184
 Alpha virt. eigenvalues --    2.87758   2.88183   2.88978   2.90131   2.91208
 Alpha virt. eigenvalues --    2.91804   2.93187   2.95096   2.96573   2.97639
 Alpha virt. eigenvalues --    2.99583   2.99747   3.01214   3.03191   3.04853
 Alpha virt. eigenvalues --    3.06496   3.07316   3.12643   3.14956   3.15561
 Alpha virt. eigenvalues --    3.18136   3.19443   3.20470   3.25265   3.26817
 Alpha virt. eigenvalues --    3.27684   3.29152   3.31477   3.35319   3.37226
 Alpha virt. eigenvalues --    3.43361   3.49050   3.49870   3.51201   3.53002
 Alpha virt. eigenvalues --    3.61613   3.63590   3.64987   3.67741   3.68219
 Alpha virt. eigenvalues --    3.71495   3.73808   3.79687   3.85531   3.87411
 Alpha virt. eigenvalues --    3.88540   3.91951   3.93008   3.94117   4.09093
 Alpha virt. eigenvalues --    4.12795   4.14096   4.16057   4.22199   4.26486
 Alpha virt. eigenvalues --    4.34680   4.37342   4.39857   4.64242   4.91553
 Alpha virt. eigenvalues --    4.95133   4.99704   5.13207   5.14897   5.61790
 Alpha virt. eigenvalues --    6.05953  14.80146  23.69047  23.83981  24.07234
 Alpha virt. eigenvalues --   24.07439  24.08114  24.09359  24.10369  24.11138
 Alpha virt. eigenvalues --   24.19094  24.19267  24.21102  24.24334  24.30557
 Alpha virt. eigenvalues --   24.33616  35.74907  50.13160
          Condensed to atoms (all electrons):
               1          2          3          4          5          6
     1  C   18.107053  -2.046775  -0.513872  -5.295119   3.818499  -4.290866
     2  C   -2.046775  13.306015   0.486980   4.773763  -3.146203   0.688259
     3  O   -0.513872   0.486980   8.246704   0.429286  -0.249682   0.321203
     4  C   -5.295119   4.773763   0.429286  14.723195   0.971556  -1.405613
     5  C    3.818499  -3.146203  -0.249682   0.971556  17.461346  -4.222519
     6  C   -4.290866   0.688259   0.321203  -1.405613  -4.222519  12.348575
     7  C    1.425703  -1.492006  -0.467910  -2.421419   0.083522   0.231815
     8  C   -0.297969  -0.204846   0.023370  -0.496248   0.577486   0.830871
     9  H   -0.006690  -0.009585  -0.000537   0.001003   0.041402   0.374282
    10  C    1.731703  -0.417821  -0.057294  -1.765100  -2.648387  -2.036757
    11  H   -0.006883  -0.002201   0.000918   0.014302   0.029184  -0.003858
    12  H   -0.007366  -0.003386  -0.002894   0.042364   0.009669  -0.058602
    13  C   -3.613799  -3.014583   0.247978  -2.499098  -4.796481   3.252399
    14  H    0.042672  -0.068739  -0.001505  -0.053329  -0.007149   0.022098
    15  C   -0.466193   0.504679   0.042538   0.823354  -0.498585  -0.095126
    16  H   -0.013864   0.042368   0.001489   0.010586  -0.012634   0.008330
    17  C   -0.597216  -1.622088  -0.150533  -1.170446   0.601560  -0.160795
    18  C   -1.006565  -3.086832  -0.353567  -2.292230  -1.283540   0.563157
    19  H    0.084193   0.043126  -0.004166  -0.012549   0.000283  -0.006418
    20  B    0.327864   0.098973  -0.032099   0.011455  -0.034630   0.011035
    21  N   -0.125004  -0.036704   0.032055   0.174664   0.259267  -0.001194
    22  C    0.028722  -0.061348  -0.004142  -0.080003  -0.043869  -0.000267
    23  H    0.014473   0.005830   0.000745  -0.002678   0.008318   0.004298
    24  H   -0.001695  -0.003535  -0.000182  -0.000767  -0.000690   0.000145
    25  H   -0.097168   0.038073  -0.013427   0.091718   0.178289   0.003676
    26  C   -0.070460   0.011614  -0.006564   0.074835   0.186681  -0.007493
    27  H   -0.005666  -0.001046  -0.001118   0.008883  -0.002661  -0.004395
    28  H    0.003608   0.001519   0.001834  -0.011536   0.014058   0.009562
    29  H    0.007415   0.001711   0.000210  -0.014055  -0.013021   0.000878
    30  H    0.296314   0.029386   0.001170   0.005641  -0.019295  -0.004484
    31  H   -0.056691  -0.051577  -0.005328  -0.007991  -0.018070   0.002549
               7          8          9         10         11         12
     1  C    1.425703  -0.297969  -0.006690   1.731703  -0.006883  -0.007366
     2  C   -1.492006  -0.204846  -0.009585  -0.417821  -0.002201  -0.003386
     3  O   -0.467910   0.023370  -0.000537  -0.057294   0.000918  -0.002894
     4  C   -2.421419  -0.496248   0.001003  -1.765100   0.014302   0.042364
     5  C    0.083522   0.577486   0.041402  -2.648387   0.029184   0.009669
     6  C    0.231815   0.830871   0.374282  -2.036757  -0.003858  -0.058602
     7  C   10.531835  -1.487554   0.002108  -1.077096  -0.006257  -0.044812
     8  C   -1.487554   8.632261  -0.022487  -0.648732   0.394794  -0.106551
     9  H    0.002108  -0.022487   0.466174  -0.035466  -0.007950   0.001130
    10  C   -1.077096  -0.648732  -0.035466  12.654830  -0.097002   0.532084
    11  H   -0.006257   0.394794  -0.007950  -0.097002   0.460130  -0.013498
    12  H   -0.044812  -0.106551   0.001130   0.532084  -0.013498   0.491490
    13  C    0.108427  -0.312444   0.016188   0.182972  -0.002843  -0.000402
    14  H    0.006714   0.002200  -0.000384   0.005973   0.000990  -0.000235
    15  C   -0.088306  -0.043205   0.009155  -0.161268   0.001388  -0.001531
    16  H   -0.000380   0.001185   0.000961  -0.000194  -0.000050   0.000024
    17  C    0.213888  -0.078572  -0.005771   0.121977  -0.000706   0.000806
    18  C    0.855013  -0.136650   0.002733   0.420112  -0.001478   0.002626
    19  H    0.001719  -0.001270  -0.000277   0.000449   0.000009  -0.000008
    20  B   -0.014316   0.008511  -0.000015  -0.016657   0.000245  -0.000629
    21  N    0.065277   0.027221   0.000275  -0.615337   0.000587  -0.028816
    22  C   -0.003199   0.035202  -0.000146  -0.059201   0.001172  -0.006924
    23  H    0.000957  -0.007227   0.000079  -0.022759  -0.000692   0.001994
    24  H    0.011989   0.012069   0.000014   0.002132   0.000257  -0.002072
    25  H   -0.092593  -0.018265   0.000294  -0.046469  -0.000331   0.002149
    26  C    0.105328  -0.323826  -0.000926  -0.392887   0.001127   0.010721
    27  H    0.015882  -0.018935  -0.000056   0.029935  -0.000182   0.006956
    28  H   -0.018640   0.048919   0.000076  -0.026765   0.000897  -0.011834
    29  H   -0.017942  -0.012739  -0.000141   0.029235   0.000596  -0.008096
    30  H   -0.004254   0.001416   0.000009  -0.001762   0.000005   0.000008
    31  H    0.006378   0.000020   0.000002   0.000186   0.000010  -0.000036
              13         14         15         16         17         18
     1  C   -3.613799   0.042672  -0.466193  -0.013864  -0.597216  -1.006565
     2  C   -3.014583  -0.068739   0.504679   0.042368  -1.622088  -3.086832
     3  O    0.247978  -0.001505   0.042538   0.001489  -0.150533  -0.353567
     4  C   -2.499098  -0.053329   0.823354   0.010586  -1.170446  -2.292230
     5  C   -4.796481  -0.007149  -0.498585  -0.012634   0.601560  -1.283540
     6  C    3.252399   0.022098  -0.095126   0.008330  -0.160795   0.563157
     7  C    0.108427   0.006714  -0.088306  -0.000380   0.213888   0.855013
     8  C   -0.312444   0.002200  -0.043205   0.001185  -0.078572  -0.136650
     9  H    0.016188  -0.000384   0.009155   0.000961  -0.005771   0.002733
    10  C    0.182972   0.005973  -0.161268  -0.000194   0.121977   0.420112
    11  H   -0.002843   0.000990   0.001388  -0.000050  -0.000706  -0.001478
    12  H   -0.000402  -0.000235  -0.001531   0.000024   0.000806   0.002626
    13  C   14.156371   0.421914  -0.503823  -0.003713  -0.129648   2.840074
    14  H    0.421914   0.450083  -0.073674  -0.006674   0.015336   0.045049
    15  C   -0.503823  -0.073674   7.792963   0.395510  -0.082868  -1.404860
    16  H   -0.003713  -0.006674   0.395510   0.443777  -0.084237  -0.013545
    17  C   -0.129648   0.015336  -0.082868  -0.084237   8.871514   0.316263
    18  C    2.840074   0.045049  -1.404860  -0.013545   0.316263  11.077431
    19  H   -0.075314   0.001524  -0.001064  -0.009009   0.394332  -0.083149
    20  B   -0.005573  -0.000751   0.123137   0.004464  -0.130182  -0.153058
    21  N   -0.028716  -0.000060  -0.003176  -0.000084  -0.012948  -0.084608
    22  C   -0.005671   0.000176  -0.001021  -0.000047   0.002362   0.016957
    23  H    0.001007   0.000009   0.000023  -0.000009   0.000112  -0.002962
    24  H   -0.001552  -0.000019   0.000313   0.000005  -0.000633  -0.003324
    25  H   -0.005797  -0.000366   0.002248   0.000078  -0.004616  -0.029716
    26  C    0.002510   0.000028  -0.001578  -0.000015  -0.000953  -0.005738
    27  H    0.000131  -0.000000  -0.000253  -0.000001   0.000230   0.000846
    28  H   -0.000147  -0.000010   0.000194   0.000001  -0.000153  -0.000718
    29  H    0.000503   0.000052  -0.000002  -0.000002   0.000019   0.001262
    30  H   -0.000541   0.000156  -0.003684   0.000327  -0.205109  -0.195894
    31  H    0.042329   0.000439   0.025565   0.000167   0.109070  -0.155867
              19         20         21         22         23         24
     1  C    0.084193   0.327864  -0.125004   0.028722   0.014473  -0.001695
     2  C    0.043126   0.098973  -0.036704  -0.061348   0.005830  -0.003535
     3  O   -0.004166  -0.032099   0.032055  -0.004142   0.000745  -0.000182
     4  C   -0.012549   0.011455   0.174664  -0.080003  -0.002678  -0.000767
     5  C    0.000283  -0.034630   0.259267  -0.043869   0.008318  -0.000690
     6  C   -0.006418   0.011035  -0.001194  -0.000267   0.004298   0.000145
     7  C    0.001719  -0.014316   0.065277  -0.003199   0.000957   0.011989
     8  C   -0.001270   0.008511   0.027221   0.035202  -0.007227   0.012069
     9  H   -0.000277  -0.000015   0.000275  -0.000146   0.000079   0.000014
    10  C    0.000449  -0.016657  -0.615337  -0.059201  -0.022759   0.002132
    11  H    0.000009   0.000245   0.000587   0.001172  -0.000692   0.000257
    12  H   -0.000008  -0.000629  -0.028816  -0.006924   0.001994  -0.002072
    13  C   -0.075314  -0.005573  -0.028716  -0.005671   0.001007  -0.001552
    14  H    0.001524  -0.000751  -0.000060   0.000176   0.000009  -0.000019
    15  C   -0.001064   0.123137  -0.003176  -0.001021   0.000023   0.000313
    16  H   -0.009009   0.004464  -0.000084  -0.000047  -0.000009   0.000005
    17  C    0.394332  -0.130182  -0.012948   0.002362   0.000112  -0.000633
    18  C   -0.083149  -0.153058  -0.084608   0.016957  -0.002962  -0.003324
    19  H    0.463322  -0.034521   0.000054   0.000031   0.000067  -0.000056
    20  B   -0.034521   4.039966   0.005875   0.003376   0.001435  -0.000871
    21  N    0.000054   0.005875   7.039680   0.251931  -0.070432  -0.058137
    22  C    0.000031   0.003376   0.251931   5.376474   0.417243   0.395041
    23  H    0.000067   0.001435  -0.070432   0.417243   0.587699  -0.058802
    24  H   -0.000056  -0.000871  -0.058137   0.395041  -0.058802   0.563136
    25  H   -0.000340  -0.011631  -0.048420   0.368474  -0.050558  -0.010461
    26  C   -0.000000  -0.000708   0.330613  -0.177663  -0.011173  -0.012749
    27  H   -0.000001  -0.000626  -0.065091  -0.007143  -0.007078   0.001413
    28  H    0.000001   0.000370  -0.039758  -0.002784   0.019174   0.001918
    29  H    0.000001   0.000250  -0.055854   0.013385  -0.000494  -0.000839
    30  H   -0.002100   0.495260   0.000651  -0.003561  -0.001020   0.000476
    31  H   -0.014389   0.484656   0.000343   0.001567   0.000027   0.000282
              25         26         27         28         29         30
     1  C   -0.097168  -0.070460  -0.005666   0.003608   0.007415   0.296314
     2  C    0.038073   0.011614  -0.001046   0.001519   0.001711   0.029386
     3  O   -0.013427  -0.006564  -0.001118   0.001834   0.000210   0.001170
     4  C    0.091718   0.074835   0.008883  -0.011536  -0.014055   0.005641
     5  C    0.178289   0.186681  -0.002661   0.014058  -0.013021  -0.019295
     6  C    0.003676  -0.007493  -0.004395   0.009562   0.000878  -0.004484
     7  C   -0.092593   0.105328   0.015882  -0.018640  -0.017942  -0.004254
     8  C   -0.018265  -0.323826  -0.018935   0.048919  -0.012739   0.001416
     9  H    0.000294  -0.000926  -0.000056   0.000076  -0.000141   0.000009
    10  C   -0.046469  -0.392887   0.029935  -0.026765   0.029235  -0.001762
    11  H   -0.000331   0.001127  -0.000182   0.000897   0.000596   0.000005
    12  H    0.002149   0.010721   0.006956  -0.011834  -0.008096   0.000008
    13  C   -0.005797   0.002510   0.000131  -0.000147   0.000503  -0.000541
    14  H   -0.000366   0.000028  -0.000000  -0.000010   0.000052   0.000156
    15  C    0.002248  -0.001578  -0.000253   0.000194  -0.000002  -0.003684
    16  H    0.000078  -0.000015  -0.000001   0.000001  -0.000002   0.000327
    17  C   -0.004616  -0.000953   0.000230  -0.000153   0.000019  -0.205109
    18  C   -0.029716  -0.005738   0.000846  -0.000718   0.001262  -0.195894
    19  H   -0.000340  -0.000000  -0.000001   0.000001   0.000001  -0.002100
    20  B   -0.011631  -0.000708  -0.000626   0.000370   0.000250   0.495260
    21  N   -0.048420   0.330613  -0.065091  -0.039758  -0.055854   0.000651
    22  C    0.368474  -0.177663  -0.007143  -0.002784   0.013385  -0.003561
    23  H   -0.050558  -0.011173  -0.007078   0.019174  -0.000494  -0.001020
    24  H   -0.010461  -0.012749   0.001413   0.001918  -0.000839   0.000476
    25  H    0.578603   0.013278   0.009752  -0.008136  -0.003748   0.005474
    26  C    0.013278   5.445685   0.405846   0.376195   0.428757   0.000235
    27  H    0.009752   0.405846   0.508650  -0.051530  -0.005846   0.000155
    28  H   -0.008136   0.376195  -0.051530   0.582052  -0.050289  -0.000097
    29  H   -0.003748   0.428757  -0.005846  -0.050289   0.533450   0.000021
    30  H    0.005474   0.000235   0.000155  -0.000097   0.000021   0.642439
    31  H   -0.003334  -0.000036  -0.000048   0.000014   0.000034  -0.012422
              31
     1  C   -0.056691
     2  C   -0.051577
     3  O   -0.005328
     4  C   -0.007991
     5  C   -0.018070
     6  C    0.002549
     7  C    0.006378
     8  C    0.000020
     9  H    0.000002
    10  C    0.000186
    11  H    0.000010
    12  H   -0.000036
    13  C    0.042329
    14  H    0.000439
    15  C    0.025565
    16  H    0.000167
    17  C    0.109070
    18  C   -0.155867
    19  H   -0.014389
    20  B    0.484656
    21  N    0.000343
    22  C    0.001567
    23  H    0.000027
    24  H    0.000282
    25  H   -0.003334
    26  C   -0.000036
    27  H   -0.000048
    28  H    0.000014
    29  H    0.000034
    30  H   -0.012422
    31  H    0.632402
 Mulliken charges:
               1
     1  C   -1.368357
     2  C    1.236979
     3  O    0.028340
     4  C    1.371578
     5  C   -1.243702
     6  C   -0.374744
     7  C   -0.429873
     8  C   -0.378006
     9  H    0.174547
    10  C    0.415365
    11  H    0.237321
    12  H    0.195670
    13  C   -0.272655
    14  H    0.197484
    15  C   -0.290852
    16  H    0.235186
    17  C   -0.209993
    18  C    0.152779
    19  H    0.255521
    20  B   -0.180607
    21  N    0.085846
    22  C   -0.455124
    23  H    0.172395
    24  H    0.167193
    25  H    0.153270
    26  C   -0.380683
    27  H    0.182996
    28  H    0.162006
    29  H    0.165291
    30  H   -0.024919
    31  H    0.019750
 Sum of Mulliken charges =  -0.00000
 Mulliken charges with hydrogens summed into heavy atoms:
               1
     1  C   -1.368357
     2  C    1.236979
     3  O    0.028340
     4  C    1.371578
     5  C   -1.243702
     6  C   -0.200197
     7  C   -0.429873
     8  C   -0.140685
    10  C    0.611035
    13  C   -0.075171
    15  C   -0.055666
    17  C    0.045528
    18  C    0.152779
    20  B   -0.185777
    21  N    0.085846
    22  C    0.037734
    26  C    0.129609
 Electronic spatial extent (au):  <R**2>=          10417.6506
 Charge=             -0.0000 electrons
 Dipole moment (field-independent basis, Debye):
    X=             -0.1759    Y=              1.5565    Z=             -1.0593  Tot=              1.8909
 Quadrupole moment (field-independent basis, Debye-Ang):
   XX=           -102.1764   YY=            -81.1759   ZZ=            -91.3882
   XY=             -4.9834   XZ=             -3.9347   YZ=              5.5629
 Traceless Quadrupole moment (field-independent basis, Debye-Ang):
   XX=            -10.5963   YY=             10.4043   ZZ=              0.1920
   XY=             -4.9834   XZ=             -3.9347   YZ=              5.5629
 Octapole moment (field-independent basis, Debye-Ang**2):
  XXX=           -451.5398  YYY=           -902.2213  ZZZ=            -76.7764  XYY=           -177.7698
  XXY=           -368.0138  XXZ=            -24.1510  XZZ=           -138.8823  YZZ=           -303.3785
  YYZ=             28.5641  XYZ=              7.0826
 Hexadecapole moment (field-independent basis, Debye-Ang**3):
 XXXX=          -2271.1790 YYYY=          -9400.4971 ZZZZ=          -1768.3991 XXXY=           -864.5858
 XXXZ=             -1.4914 YYYX=          -1061.0796 YYYZ=           -160.9373 ZZZX=            -60.3704
 ZZZY=           -467.0029 XXYY=          -2172.4657 XXZZ=           -682.8027 YYZZ=          -1795.9267
 XXYZ=           -118.7551 YYXZ=             39.2741 ZZXY=           -248.1305
 N-N= 1.124919775912D+03 E-N=-3.869167343969D+03  KE= 6.937695200817D+02
 Breneman (CHELPG) radii used.
 Generate Potential Derived Charges using the Breneman model, NDens= 1.
 Grid spacing= 0.300 Box extension= 2.800
 NStep X,Y,Z=   37     48     44   Total possible points=       78144
 Number of Points to Fit=   18606

 **********************************************************************

            Electrostatic Properties Using The SCF Density.

 **********************************************************************

       Atomic Center    1 is at   2.098202  2.162435  0.190060
       Atomic Center    2 is at   1.909744  2.535057 -1.144476
       Atomic Center    3 is at   1.617597  3.113109  1.034120
       Atomic Center    4 is at   1.257066  3.829993 -1.104848
       Atomic Center    5 is at   1.117407  4.122590  0.249344
       Atomic Center    6 is at   0.768975  4.711360 -2.070608
       Atomic Center    7 is at   0.510008  5.288157  0.738529
       Atomic Center    8 is at   0.153600  5.864935 -1.620623
       Atomic Center    9 is at   0.860901  4.495085 -3.127973
       Atomic Center   10 is at   0.032695  6.150650 -0.254598
       Atomic Center   11 is at  -0.241899  6.578051 -2.335033
       Atomic Center   12 is at  -0.446437  7.076834  0.034163
       Atomic Center   13 is at   2.336990  1.678403 -2.154298
       Atomic Center   14 is at   2.200922  1.943500 -3.197021
       Atomic Center   15 is at   2.941886  0.476251 -1.802804
       Atomic Center   16 is at   3.279885 -0.201485 -2.577736
       Atomic Center   17 is at   3.116338  0.136354 -0.462129
       Atomic Center   18 is at   2.701963  0.966784  0.596098
       Atomic Center   19 is at   3.592014 -0.806867 -0.214150
       Atomic Center   20 is at   2.914529  0.567746  2.064581
       Atomic Center   21 is at   0.357769  5.516393  2.109648
       Atomic Center   22 is at   1.563758  5.423326  2.926406
       Atomic Center   23 is at   2.224276  6.290725  2.772634
       Atomic Center   24 is at   1.275855  5.390594  3.979110
       Atomic Center   25 is at   2.115762  4.514596  2.699022
       Atomic Center   26 is at  -0.486400  6.629538  2.495735
       Atomic Center   27 is at  -0.655492  6.577546  3.572736
       Atomic Center   28 is at  -0.038390  7.610706  2.268463
       Atomic Center   29 is at  -1.455414  6.561955  1.998029
       Atomic Center   30 is at   2.573018  1.281674  2.958018
       Atomic Center   31 is at   3.437358 -0.480359  2.308291
   18606 points will be used for fitting atomic charges
 Fitting point charges to electrostatic potential
 Charges from ESP fit, RMS=   0.00460 RRMS=   0.40315:
 ESP charges:
               1
     1  C    0.290897
     2  C    0.003732
     3  O   -0.269811
     4  C    0.046997
     5  C    0.014284
     6  C   -0.224507
     7  C    0.363448
     8  C   -0.117778
     9  H    0.140187
    10  C   -0.270942
    11  H    0.114862
    12  H    0.153148
    13  C   -0.132221
    14  H    0.135810
    15  C   -0.119574
    16  H    0.102519
    17  C   -0.107594
    18  C   -0.248662
    19  H    0.119259
    20  B    0.514849
    21  N   -0.418273
    22  C    0.087777
    23  H   -0.004043
    24  H    0.050956
    25  H    0.042815
    26  C   -0.030019
    27  H    0.079233
    28  H    0.044007
    29  H    0.043835
    30  H   -0.197462
    31  H   -0.207726
 Sum of ESP charges =   0.00000
 ESP charges with hydrogens summed into heavy atoms:
               1
     1  C    0.290897
     2  C    0.003732
     3  O   -0.269811
     4  C    0.046997
     5  C    0.014284
     6  C   -0.084320
     7  C    0.363448
     8  C   -0.002917
    10  C   -0.117794
    13  C    0.003589
    15  C   -0.017056
    17  C    0.011666
    18  C   -0.248662
    20  B    0.109660
    21  N   -0.418273
    22  C    0.177505
    26  C    0.137055
 Charge=   0.00000 Dipole=    -0.1354     1.5468    -1.1061 Tot=     1.9064
 -----------------------------------------------------------------

              Electrostatic Properties (Atomic Units)

 -----------------------------------------------------------------
    Center     Electric         -------- Electric Field --------
               Potential          X             Y             Z
 -----------------------------------------------------------------
    1 Atom    -14.707559
    2 Atom    -14.759680
    3 Atom    -22.303535
    4 Atom    -14.762424
    5 Atom    -14.717353
    6 Atom    -14.772362
    7 Atom    -14.726674
    8 Atom    -14.772596
    9 Atom     -1.098295
   10 Atom    -14.773324
   11 Atom     -1.104996
   12 Atom     -1.099701
   13 Atom    -14.751254
   14 Atom     -1.085193
   15 Atom    -14.766661
   16 Atom     -1.097037
   17 Atom    -14.759751
   18 Atom    -14.782205
   19 Atom     -1.100853
   20 Atom    -11.467351
   21 Atom    -18.375201
   22 Atom    -14.752653
   23 Atom     -1.119788
   24 Atom     -1.114170
   25 Atom     -1.119109
   26 Atom    -14.745230
   27 Atom     -1.106735
   28 Atom     -1.111576
   29 Atom     -1.107778
   30 Atom     -1.167046
   31 Atom     -1.163628
 -----------------------------------------------------------------
 Unable to Open any file for archive entry.
 1\1\GINC-IRENE4817\SP\RwB97XD\GenECP\C14H14B1N1O1\PENASFRA\10-Apr-2024
 \0\\# wb97xd/genecp scrf=(solvent=toluene,pcm) nosymm pop=(chelpg) scf
 cyc=300\\h_dibenzofuran_chelpg\\0,1\C,0,2.098202,2.162435,0.19006\C,0,
 1.909744,2.535057,-1.144476\O,0,1.617597,3.113109,1.03412\C,0,1.257066
 ,3.829993,-1.104848\C,0,1.117407,4.12259,0.249344\C,0,0.768975,4.71136
 ,-2.070608\C,0,0.510008,5.288157,0.738529\C,0,0.1536,5.864935,-1.62062
 3\H,0,0.860901,4.495085,-3.127973\C,0,0.032695,6.15065,-0.254598\H,0,-
 0.241899,6.578051,-2.335033\H,0,-0.446437,7.076834,0.034163\C,0,2.3369
 9,1.678403,-2.154298\H,0,2.200922,1.9435,-3.197021\C,0,2.941886,0.4762
 51,-1.802804\H,0,3.279885,-0.201485,-2.577736\C,0,3.116338,0.136354,-0
 .462129\C,0,2.701963,0.966784,0.596098\H,0,3.592014,-0.806867,-0.21415
 \B,0,2.914529,0.567746,2.064581\N,0,0.357769,5.516393,2.109648\C,0,1.5
 63758,5.423326,2.926406\H,0,2.224276,6.290725,2.772634\H,0,1.275855,5.
 390594,3.97911\H,0,2.115762,4.514596,2.699022\C,0,-0.4864,6.629538,2.4
 95735\H,0,-0.655492,6.577546,3.572736\H,0,-0.03839,7.610706,2.268463\H
 ,0,-1.455414,6.561955,1.998029\H,0,2.573018,1.281674,2.958018\H,0,3.43
 7358,-0.480359,2.308291\\Version=AS64L-G16RevC.02\HF=-696.6687244\RMSD
 =7.295e-09\Dipole=-0.0691948,0.612367,-0.4167494\Quadrupole=-7.8780709
 ,7.7353417,0.1427291,-3.705008,-2.9253843,4.1359113\PG=C01 [X(C14H14B1
 N1O1)]\\@
 The archive entry for this job was punched.


 FAULTILY FAULTLESS, ICILY REGULAR, SPLENDIDLY NULL...
           MAUDE BY TENNYSON
 Job cpu time:       0 days  1 hours  9 minutes  4.5 seconds.
 Elapsed time:       0 days  0 hours  0 minutes 43.7 seconds.
 File lengths (MBytes):  RWF=    213 Int=      0 D2E=      0 Chk=     15 Scr=      1
 Normal termination of Gaussian 16 at Wed Apr 10 16:16:42 2024.
