 Entering Gaussian System, Link 0=/ccc/products/gaussian-16-C.02/system/default/g16/g16
 Input=h_indenoPy_chelpg.gjf
 Output=h_indenoPy_chelpg.log
 Initial command:
 /ccc/products/gaussian-16-C.02/system/default/g16/l1.exe "/ccc/scratch/cont003/gen7343/penasfra/flp/b-n_flp/h_indenoPy/reac/Gau-390534.inp" -scrdir="/ccc/scratch/cont003/gen7343/penasfra/flp/b-n_flp/h_indenoPy/reac/"
 Entering Link 1 = /ccc/products/gaussian-16-C.02/system/default/g16/l1.exe PID=    390583.
  
 Copyright (c) 1988-2021, Gaussian, Inc.  All Rights Reserved.
  
 This is part of the Gaussian(R) 16 program.  It is based on
 the Gaussian(R) 09 system (copyright 2009, Gaussian, Inc.),
 the Gaussian(R) 03 system (copyright 2003, Gaussian, Inc.),
 the Gaussian(R) 98 system (copyright 1998, Gaussian, Inc.),
 the Gaussian(R) 94 system (copyright 1995, Gaussian, Inc.),
 the Gaussian 92(TM) system (copyright 1992, Gaussian, Inc.),
 the Gaussian 90(TM) system (copyright 1990, Gaussian, Inc.),
 the Gaussian 88(TM) system (copyright 1988, Gaussian, Inc.),
 the Gaussian 86(TM) system (copyright 1986, Carnegie Mellon
 University), and the Gaussian 82(TM) system (copyright 1983,
 Carnegie Mellon University). Gaussian is a federally registered
 trademark of Gaussian, Inc.
  
 This software contains proprietary and confidential information,
 including trade secrets, belonging to Gaussian, Inc.
  
 This software is provided under written license and may be
 used, copied, transmitted, or stored only in accord with that
 written license.
  
 The following legend is applicable only to US Government
 contracts under FAR:
  
                    RESTRICTED RIGHTS LEGEND
  
 Use, reproduction and disclosure by the US Government is
 subject to restrictions as set forth in subparagraphs (a)
 and (c) of the Commercial Computer Software - Restricted
 Rights clause in FAR 52.227-19.
  
 Gaussian, Inc.
 340 Quinnipiac St., Bldg. 40, Wallingford CT 06492
  
  
 ---------------------------------------------------------------
 Warning -- This program may not be used in any manner that
 competes with the business of Gaussian, Inc. or will provide
 assistance to any competitor of Gaussian, Inc.  The licensee
 of this program is prohibited from giving any competitor of
 Gaussian, Inc. access to this program.  By using this program,
 the user acknowledges that Gaussian, Inc. is engaged in the
 business of creating and licensing software in the field of
 computational chemistry and represents and warrants to the
 licensee that it is not a competitor of Gaussian, Inc. and that
 it will not use this program in any manner prohibited above.
 ---------------------------------------------------------------
  

 Cite this work as:
 Gaussian 16, Revision C.02,
 M. J. Frisch, G. W. Trucks, H. B. Schlegel, G. E. Scuseria, 
 M. A. Robb, J. R. Cheeseman, G. Scalmani, V. Barone, 
 G. A. Petersson, H. Nakatsuji, X. Li, M. Caricato, A. V. Marenich, 
 J. Bloino, B. G. Janesko, R. Gomperts, B. Mennucci, H. P. Hratchian, 
 J. V. Ortiz, A. F. Izmaylov, J. L. Sonnenberg, D. Williams-Young, 
 F. Ding, F. Lipparini, F. Egidi, J. Goings, B. Peng, A. Petrone, 
 T. Henderson, D. Ranasinghe, V. G. Zakrzewski, J. Gao, N. Rega, 
 G. Zheng, W. Liang, M. Hada, M. Ehara, K. Toyota, R. Fukuda, 
 J. Hasegawa, M. Ishida, T. Nakajima, Y. Honda, O. Kitao, H. Nakai, 
 T. Vreven, K. Throssell, J. A. Montgomery, Jr., J. E. Peralta, 
 F. Ogliaro, M. J. Bearpark, J. J. Heyd, E. N. Brothers, K. N. Kudin, 
 V. N. Staroverov, T. A. Keith, R. Kobayashi, J. Normand, 
 K. Raghavachari, A. P. Rendell, J. C. Burant, S. S. Iyengar, 
 J. Tomasi, M. Cossi, J. M. Millam, M. Klene, C. Adamo, R. Cammi, 
 J. W. Ochterski, R. L. Martin, K. Morokuma, O. Farkas, 
 J. B. Foresman, and D. J. Fox, Gaussian, Inc., Wallingford CT, 2019.
 
 ******************************************
 Gaussian 16:  AS64L-G16RevC.02  7-Dec-2021
                10-Apr-2024 
 ******************************************
 %nprocshared=128
 Will use up to  128 processors via shared memory.
 %mem=30GB
 %chk=h_indenoPy_chelpg.chk
 ----------------------------------------------------------------------
 # wb97xd/genecp scrf=(solvent=toluene,pcm) nosymm pop=(chelpg) scfcyc=
 300
 ----------------------------------------------------------------------
 1/38=1,172=1/1;
 2/12=2,15=1,17=6,18=5,40=1/2;
 3/5=7,11=2,16=1,17=8,25=1,30=1,70=2201,72=13,74=-58/1,2,3;
 4//1;
 5/5=2,7=300,38=5,53=13/2;
 6/7=2,8=2,9=2,10=2,15=8,20=3,28=1/1,2;
 99/5=1,9=1/99;
 -----------------
 h_indenoPy_chelpg
 -----------------
 Symbolic Z-matrix:
 Charge =  0 Multiplicity = 1
 C                     0.49788   0.75568  -0.56084 
 C                     1.62977   0.76759   0.22626 
 C                     2.2058    1.69809   1.06612 
 C                     1.44156   2.87341   1.09649 
 C                     0.26562   2.96064   0.32585 
 C                    -0.23419   1.93599  -0.50579 
 H                     1.72592   3.73012   1.69961 
 H                    -0.30117   3.88553   0.37369 
 H                    -1.15087   2.09548  -1.06281 
 C                     0.43912  -0.6249   -1.25577 
 H                     0.46212  -0.53545  -2.3454 
 H                    -0.46923  -1.17505  -0.99469 
 C                     2.31406  -0.44185   0.12547 
 C                     1.69999  -1.34255  -0.72565 
 C                     4.06233  -1.71279   0.73094 
 C                     2.36252  -2.54867  -0.83951 
 C                     3.55494  -2.70993  -0.09219 
 H                     4.97422  -1.84356   1.29914 
 H                     2.01221  -3.36124  -1.46651 
 H                     4.10005  -3.64279  -0.15769 
 N                     3.41874  -0.53385   0.84517 
 B                     3.56303   0.96467   1.65574 
 H                     4.60928   1.45201   1.292 
 H                     3.54027   0.71771   2.8402 
 
                          Input orientation:                          
 ---------------------------------------------------------------------
 Center     Atomic      Atomic             Coordinates (Angstroms)
 Number     Number       Type             X           Y           Z
 ---------------------------------------------------------------------
      1          6           0        0.497879    0.755684   -0.560840
      2          6           0        1.629767    0.767592    0.226256
      3          6           0        2.205802    1.698086    1.066121
      4          6           0        1.441555    2.873411    1.096491
      5          6           0        0.265618    2.960640    0.325847
      6          6           0       -0.234188    1.935985   -0.505793
      7          1           0        1.725923    3.730121    1.699606
      8          1           0       -0.301168    3.885531    0.373694
      9          1           0       -1.150870    2.095477   -1.062806
     10          6           0        0.439120   -0.624900   -1.255769
     11          1           0        0.462119   -0.535452   -2.345398
     12          1           0       -0.469228   -1.175047   -0.994689
     13          6           0        2.314057   -0.441849    0.125468
     14          6           0        1.699990   -1.342549   -0.725646
     15          6           0        4.062325   -1.712789    0.730940
     16          6           0        2.362517   -2.548673   -0.839514
     17          6           0        3.554935   -2.709926   -0.092191
     18          1           0        4.974218   -1.843557    1.299143
     19          1           0        2.012215   -3.361235   -1.466506
     20          1           0        4.100049   -3.642789   -0.157692
     21          7           0        3.418738   -0.533848    0.845171
     22          5           0        3.563034    0.964669    1.655737
     23          1           0        4.609275    1.452009    1.291998
     24          1           0        3.540273    0.717711    2.840197
 ---------------------------------------------------------------------
                    Distance matrix (angstroms):
                    1          2          3          4          5
     1  C    0.000000
     2  C    1.378707   0.000000
     3  C    2.540103   1.379496   0.000000
     4  C    2.849919   2.286308   1.402278   0.000000
     5  C    2.387884   2.584624   2.430301   1.408662   0.000000
     6  C    1.389987   2.318484   2.912226   2.500839   1.411152
     7  H    3.932554   3.310073   2.181915   1.085617   2.147511
     8  H    3.362703   3.670394   3.398422   2.141006   1.085799
     9  H    2.182977   3.340195   3.994684   3.462429   2.164094
    10  C    1.546736   2.356496   3.729424   4.333149   3.922717
    11  H    2.202943   3.110423   4.434815   4.942291   4.404182
    12  H    2.202554   3.109716   4.433691   4.941066   4.403149
    13  C    2.281141   1.393255   2.340057   3.563018   3.976580
    14  C    2.423801   2.315976   3.565352   4.600140   4.656232
    15  C    4.524083   3.510603   3.897832   5.294836   6.034900
    16  C    3.804380   3.559551   4.657356   5.830547   6.008958
    17  C    4.644962   3.987582   4.753148   6.087117   6.568842
    18  H    5.500291   4.376590   4.501296   5.896657   6.796950
    19  H    4.479114   4.478719   5.661131   6.765014   6.799208
    20  H    5.699537   5.069632   5.797485   7.148526   7.651271
    21  N    3.488721   2.297220   2.549816   3.947382   4.735326
    22  B    3.788412   2.412421   1.651553   2.908045   4.077433
    23  H    4.563053   3.237545   2.426573   3.477507   4.698592
    24  H    4.563404   3.238087   2.426787   3.477380   4.698516
                    6          7          8          9         10
     6  C    0.000000
     7  H    3.453222   0.000000
     8  H    2.139793   2.427199   0.000000
     9  H    1.084439   4.310327   2.447411   0.000000
    10  C    2.752079   5.418146   4.852542   3.156858   0.000000
    11  H    3.158637   6.012850   5.246061   3.341940   1.093536
    12  H    3.157971   6.011538   5.245013   3.341497   1.093582
    13  C    3.542053   4.497682   5.062335   4.455978   2.335961
    14  C    3.812895   5.622677   5.704910   4.478962   1.544618
    15  C    5.770882   6.001863   7.106960   6.700583   4.272953
    16  C    5.192919   6.802620   7.068668   5.827682   2.752022
    17  C    6.009410   6.930370   7.654191   6.795483   3.925500
    18  H    6.683579   6.463565   7.842742   7.655814   5.346009
    19  H    5.833510   7.771329   7.826474   6.320110   3.163316
    20  H    7.073154   7.965289   8.736629   7.830650   4.869890
    21  N    4.611838   4.666595   5.795766   5.606696   3.646966
    22  B    4.475998   3.320335   5.010701   5.557886   4.556582
    23  H    5.188971   3.697250   5.556776   6.256071   5.309883
    24  H    5.189065   3.696948   5.556563   6.256077   5.310056
                   11         12         13         14         15
    11  H    0.000000
    12  H    1.760938   0.000000
    13  C    3.089274   3.088528   0.000000
    14  C    2.192562   2.192247   1.383016   0.000000
    15  C    4.879699   4.878723   2.244622   2.799883   0.000000
    16  C    3.151549   3.151144   2.317811   1.380812   2.460564
    17  C    4.401226   4.400482   2.594480   2.389939   1.388982
    18  H    5.945827   5.944718   3.227810   3.882183   1.082360
    19  H    3.340703   3.340597   3.338908   2.172890   3.427695
    20  H    5.260811   5.260096   3.676406   3.372530   2.125086
    21  N    4.349865   4.348850   1.321649   2.464865   1.348019
    22  B    5.279689   5.278473   2.424863   3.803311   2.876338
    23  H    5.863408   6.158048   3.196172   4.510475   3.260351
    24  H    6.159208   5.862165   3.196551   4.510715   3.260189
                   16         17         18         19         20
    16  C    0.000000
    17  C    1.416459   0.000000
    18  H    3.448481   2.168126   0.000000
    19  H    1.084476   2.166317   4.327311   0.000000
    20  H    2.163559   1.082438   2.474626   2.480185   0.000000
    21  N    2.830775   2.373292   2.083494   3.913601   3.336980
    22  B    4.473376   4.069148   3.163026   5.555798   4.980520
    23  H    5.059320   4.511021   3.315719   6.125470   5.321455
    24  H    5.059313   4.510855   3.315289   6.125394   5.321151
                   21         22         23         24
    21  N    0.000000
    22  B    1.709793   0.000000
    23  H    2.358105   1.210135   0.000000
    24  H    2.358241   1.210145   2.019623   0.000000
 Symmetry turned off by external request.
 Stoichiometry    C12H10BN
 Framework group  C1[X(C12H10BN)]
 Deg. of freedom    66
 Full point group                 C1      NOp   1
 Rotational constants (GHZ):           1.5387324           0.6638278           0.4668573
 General basis read from cards:  (5D, 7F)
 ======================================================================================================
                                       Pseudopotential Parameters
 ======================================================================================================
  Center     Atomic      Valence      Angular      Power
  Number     Number     Electrons     Momentum     of R      Exponent        Coefficient   SO-Coeffient
 ======================================================================================================
    1          6
                                   No pseudopotential on this center.
    2          6
                                   No pseudopotential on this center.
    3          6
                                   No pseudopotential on this center.
    4          6
                                   No pseudopotential on this center.
    5          6
                                   No pseudopotential on this center.
    6          6
                                   No pseudopotential on this center.
    7          1
                                   No pseudopotential on this center.
    8          1
                                   No pseudopotential on this center.
    9          1
                                   No pseudopotential on this center.
   10          6
                                   No pseudopotential on this center.
   11          1
                                   No pseudopotential on this center.
   12          1
                                   No pseudopotential on this center.
   13          6
                                   No pseudopotential on this center.
   14          6
                                   No pseudopotential on this center.
   15          6
                                   No pseudopotential on this center.
   16          6
                                   No pseudopotential on this center.
   17          6
                                   No pseudopotential on this center.
   18          1
                                   No pseudopotential on this center.
   19          1
                                   No pseudopotential on this center.
   20          1
                                   No pseudopotential on this center.
   21          7
                                   No pseudopotential on this center.
   22          5
                                   No pseudopotential on this center.
   23          1
                                   No pseudopotential on this center.
   24          1
                                   No pseudopotential on this center.
 ======================================================================================================
   378 basis functions,   594 primitive gaussians,   392 cartesian basis functions
    47 alpha electrons       47 beta electrons
       nuclear repulsion energy       800.3284615400 Hartrees.
 NAtoms=   24 NActive=   24 NUniq=   24 SFac= 1.00D+00 NAtFMM=   60 NAOKFM=F Big=F
 Integral buffers will be    131072 words long.
 Raffenetti 2 integral format.
 Two-electron integral symmetry is turned off.
 Nuclear repulsion after empirical dispersion term =      800.3127360270 Hartrees.
 ------------------------------------------------------------------------------
 Polarizable Continuum Model (PCM)
 =================================
 Model                : PCM.
 Atomic radii         : UFF (Universal Force Field).
 Polarization charges : Total charges.
 Charge compensation  : None.
 Solution method      : On-the-fly selection.
 Cavity type          : Scaled VdW (van der Waals Surface) (Alpha=1.100).
 Cavity algorithm     : GePol (No added spheres)
                        Default sphere list used, NSphG=   24.
                        Lebedev-Laikov grids with approx.  5.0 points / Ang**2.
                        Smoothing algorithm: York/Karplus (Gamma=1.0000).
                        Polarization charges: spherical gaussians, with
                                              point-specific exponents (IZeta= 3).
                        Self-potential: point-specific (ISelfS= 7).
                        Self-field    : sphere-specific E.n sum rule (ISelfD= 2).
 Solvent              : Toluene, Eps=   2.374100 Eps(inf)=   2.238315
 ------------------------------------------------------------------------------
 One-electron integrals computed using PRISM.
   1 Symmetry operations used in ECPInt.
 ECPInt:  NShTT=    9045 NPrTT=   32160 LenC2=    8718 LenP2D=   22500.
 LDataN:  DoStor=T MaxTD1= 4 Len=   56
 Number of processors reduced to 118 by ecpmxn.
 NBasis=   378 RedAO= T EigKep=  1.26D-06  NBF=   378
 NBsUse=   374 1.00D-06 EigRej=  4.43D-07 NBFU=   374
 ExpMin= 3.15D-02 ExpMax= 6.29D+03 ExpMxC= 9.49D+02 IAcc=3 IRadAn=         5 AccDes= 0.00D+00
 Harris functional with IExCor= 4639 and IRadAn=       5 diagonalized for initial guess.
 HarFok:  IExCor= 4639 AccDes= 0.00D+00 IRadAn=         5 IDoV= 1 UseB2=F ITyADJ=14
 ICtDFT=  3500011 ScaDFX=  1.000000  1.000000  1.000000  1.000000
 FoFCou: FMM=F IPFlag=           0 FMFlag=      100000 FMFlg1=           0
         NFxFlg=           0 DoJE=T BraDBF=F KetDBF=T FulRan=T
         wScrn=  0.000000 ICntrl=       500 IOpCl=  0 I1Cent=   200000004 NGrid=           0
         NMat0=    1 NMatS0=      1 NMatT0=    0 NMatD0=    1 NMtDS0=    0 NMtDT0=    0
 Symmetry not used in FoFCou.
 Requested convergence on RMS density matrix=1.00D-08 within 300 cycles.
 Requested convergence on MAX density matrix=1.00D-06.
 Requested convergence on             energy=1.00D-06.
 No special actions if energy rises.
 Inv3:  Mode=1 IEnd=    10727643.
 Iteration    1 A*A^-1 deviation from unit magnitude is 4.88D-15 for   1890.
 Iteration    1 A*A^-1 deviation from orthogonality  is 1.67D-15 for   1225    361.
 Iteration    1 A^-1*A deviation from unit magnitude is 4.77D-15 for   1890.
 Iteration    1 A^-1*A deviation from orthogonality  is 1.19D-15 for   1887    492.
 Error on total polarization charges =  0.01063
 SCF Done:  E(RwB97XD) =  -542.840691354     A.U. after   16 cycles
            NFock= 16  Conv=0.51D-08     -V/T= 2.0043

 **********************************************************************

            Population analysis using the SCF Density.

 **********************************************************************

 Alpha  occ. eigenvalues --  -14.49561 -10.35536 -10.33377 -10.33317 -10.32497
 Alpha  occ. eigenvalues --  -10.32186 -10.31694 -10.30577 -10.29429 -10.29238
 Alpha  occ. eigenvalues --  -10.28695 -10.27320 -10.27075  -6.81351  -1.10803
 Alpha  occ. eigenvalues --   -0.99338  -0.94860  -0.91510  -0.87157  -0.83377
 Alpha  occ. eigenvalues --   -0.81181  -0.76426  -0.73638  -0.69643  -0.68743
 Alpha  occ. eigenvalues --   -0.63365  -0.60784  -0.59338  -0.58565  -0.56629
 Alpha  occ. eigenvalues --   -0.54446  -0.52859  -0.52041  -0.52026  -0.50896
 Alpha  occ. eigenvalues --   -0.49543  -0.47037  -0.46118  -0.45397  -0.43006
 Alpha  occ. eigenvalues --   -0.41668  -0.41152  -0.38098  -0.37390  -0.36928
 Alpha  occ. eigenvalues --   -0.31825  -0.30269
 Alpha virt. eigenvalues --   -0.00409   0.02108   0.03640   0.04534   0.05219
 Alpha virt. eigenvalues --    0.05494   0.06036   0.06486   0.06707   0.07612
 Alpha virt. eigenvalues --    0.07864   0.08638   0.08956   0.09197   0.10854
 Alpha virt. eigenvalues --    0.11993   0.12065   0.12293   0.12753   0.13295
 Alpha virt. eigenvalues --    0.13890   0.14770   0.15064   0.15627   0.15672
 Alpha virt. eigenvalues --    0.16075   0.16574   0.16917   0.17326   0.17388
 Alpha virt. eigenvalues --    0.17899   0.18291   0.18404   0.18781   0.19383
 Alpha virt. eigenvalues --    0.19474   0.20355   0.20668   0.20756   0.21605
 Alpha virt. eigenvalues --    0.22531   0.22896   0.22986   0.23160   0.23376
 Alpha virt. eigenvalues --    0.23596   0.23833   0.23896   0.24119   0.24742
 Alpha virt. eigenvalues --    0.25378   0.25750   0.26039   0.26335   0.27603
 Alpha virt. eigenvalues --    0.28666   0.28961   0.29229   0.29417   0.29877
 Alpha virt. eigenvalues --    0.31216   0.31381   0.32174   0.32352   0.32810
 Alpha virt. eigenvalues --    0.32991   0.33719   0.34015   0.34574   0.35073
 Alpha virt. eigenvalues --    0.35495   0.35900   0.36700   0.37085   0.37401
 Alpha virt. eigenvalues --    0.37918   0.38657   0.38882   0.40210   0.40662
 Alpha virt. eigenvalues --    0.41045   0.41501   0.42287   0.43074   0.43336
 Alpha virt. eigenvalues --    0.44960   0.46702   0.47733   0.48154   0.50364
 Alpha virt. eigenvalues --    0.51993   0.53412   0.55656   0.57841   0.59524
 Alpha virt. eigenvalues --    0.60322   0.60720   0.61450   0.62483   0.62522
 Alpha virt. eigenvalues --    0.63682   0.64487   0.64603   0.65208   0.66013
 Alpha virt. eigenvalues --    0.67150   0.67722   0.68297   0.68613   0.69639
 Alpha virt. eigenvalues --    0.70443   0.70516   0.71972   0.72792   0.73082
 Alpha virt. eigenvalues --    0.74200   0.74722   0.75188   0.76318   0.76399
 Alpha virt. eigenvalues --    0.78998   0.79664   0.80051   0.80629   0.81746
 Alpha virt. eigenvalues --    0.82680   0.82819   0.84743   0.86230   0.86827
 Alpha virt. eigenvalues --    0.87498   0.88053   0.89547   0.91971   0.92352
 Alpha virt. eigenvalues --    0.93801   0.93920   0.94994   0.96181   0.96557
 Alpha virt. eigenvalues --    0.97300   0.97985   0.99085   1.00949   1.02311
 Alpha virt. eigenvalues --    1.02383   1.02772   1.05283   1.05426   1.07150
 Alpha virt. eigenvalues --    1.08793   1.09665   1.10047   1.11317   1.11822
 Alpha virt. eigenvalues --    1.12335   1.13737   1.14170   1.14989   1.16752
 Alpha virt. eigenvalues --    1.17796   1.21312   1.22370   1.23904   1.24152
 Alpha virt. eigenvalues --    1.28044   1.30686   1.35780   1.36299   1.38184
 Alpha virt. eigenvalues --    1.38299   1.41243   1.41896   1.42386   1.44918
 Alpha virt. eigenvalues --    1.46437   1.48075   1.50286   1.55482   1.57405
 Alpha virt. eigenvalues --    1.59879   1.61063   1.62470   1.63440   1.64646
 Alpha virt. eigenvalues --    1.65094   1.65833   1.66111   1.66832   1.69692
 Alpha virt. eigenvalues --    1.70719   1.71117   1.73027   1.73874   1.75483
 Alpha virt. eigenvalues --    1.78289   1.80844   1.81263   1.82236   1.83734
 Alpha virt. eigenvalues --    1.84087   1.85344   1.85504   1.87961   1.90874
 Alpha virt. eigenvalues --    1.90978   1.92850   1.95172   1.96033   1.96197
 Alpha virt. eigenvalues --    1.98653   1.99107   2.00695   2.01042   2.02269
 Alpha virt. eigenvalues --    2.04012   2.05005   2.06025   2.06999   2.07816
 Alpha virt. eigenvalues --    2.08514   2.09753   2.11513   2.14330   2.16399
 Alpha virt. eigenvalues --    2.19567   2.20700   2.23389   2.23969   2.27258
 Alpha virt. eigenvalues --    2.28579   2.30787   2.33279   2.35293   2.36684
 Alpha virt. eigenvalues --    2.38226   2.42030   2.46277   2.49266   2.49718
 Alpha virt. eigenvalues --    2.52591   2.53862   2.57085   2.57683   2.60975
 Alpha virt. eigenvalues --    2.62683   2.64792   2.65632   2.68696   2.68928
 Alpha virt. eigenvalues --    2.70793   2.74092   2.74819   2.78147   2.78999
 Alpha virt. eigenvalues --    2.80831   2.81062   2.82304   2.82916   2.83269
 Alpha virt. eigenvalues --    2.83531   2.84502   2.86400   2.86999   2.87259
 Alpha virt. eigenvalues --    2.89082   2.91137   2.93068   2.93786   2.93878
 Alpha virt. eigenvalues --    2.96235   2.97480   2.97656   3.03525   3.06241
 Alpha virt. eigenvalues --    3.08809   3.09455   3.09573   3.10547   3.14990
 Alpha virt. eigenvalues --    3.15843   3.22846   3.22901   3.31874   3.34801
 Alpha virt. eigenvalues --    3.35088   3.38820   3.45346   3.50443   3.53297
 Alpha virt. eigenvalues --    3.54865   3.56233   3.59031   3.64840   3.67458
 Alpha virt. eigenvalues --    3.73149   3.78833   3.84703   3.86455   3.90144
 Alpha virt. eigenvalues --    4.03240   4.09773   4.11722   4.12710   4.17038
 Alpha virt. eigenvalues --    4.23998   4.28652   4.36639   4.53038   4.68865
 Alpha virt. eigenvalues --    4.76736   4.86721   5.30015  14.86745  23.67875
 Alpha virt. eigenvalues --   23.92210  24.02147  24.03936  24.07400  24.11477
 Alpha virt. eigenvalues --   24.18357  24.21343  24.23648  24.25340  24.29636
 Alpha virt. eigenvalues --   24.37111  35.80882
          Condensed to atoms (all electrons):
               1          2          3          4          5          6
     1  C    8.004711   1.280992   0.120221   0.455068  -0.718016  -0.943303
     2  C    1.280992   8.958303  -1.343522  -0.822251  -0.320874  -1.553569
     3  C    0.120221  -1.343522   9.516811  -1.009549   0.408507   1.759034
     4  C    0.455068  -0.822251  -1.009549   8.245261  -0.110196  -1.242237
     5  C   -0.718016  -0.320874   0.408507  -0.110196   6.249929   1.318740
     6  C   -0.943303  -1.553569   1.759034  -1.242237   1.318740   9.318800
     7  H   -0.003703   0.067969  -0.067786   0.359868  -0.069199  -0.015483
     8  H   -0.018073   0.025013   0.017952  -0.064140   0.461065  -0.057486
     9  H   -0.057970   0.000295   0.011941   0.005191  -0.056154   0.426129
    10  C   -3.242865   0.217624  -3.311597   0.976932  -0.531088  -0.348224
    11  H    0.010696  -0.015031   0.015401  -0.001457   0.007254   0.021811
    12  H    0.011558  -0.015523   0.015506  -0.001739   0.007486   0.022402
    13  C   -0.211080   1.379695  -1.334814   0.090134  -0.404634  -1.188885
    14  C    0.348717  -0.399447   0.372329  -0.182408  -0.086711  -0.947552
    15  C   -0.002808  -0.067075  -0.060195   0.010389   0.011145   0.026734
    16  C    0.538720  -1.459341   0.350412  -0.170123   0.039517   0.115061
    17  C   -0.290310  -0.262451  -0.144238   0.032814  -0.012323  -0.093624
    18  H    0.001588   0.003049   0.017754   0.004934   0.000538  -0.000021
    19  H   -0.004417   0.009958   0.003766   0.000797  -0.001165   0.002006
    20  H   -0.002882  -0.017275  -0.000607   0.000261  -0.000318  -0.002021
    21  N    0.010126  -0.247278   0.223218   0.072056   0.029803  -0.017293
    22  B   -0.003669   0.053445   0.353257   0.089847   0.016555   0.000007
    23  H   -0.001637   0.024737  -0.093793  -0.067190   0.006808   0.015448
    24  H   -0.001520   0.024408  -0.094123  -0.066120   0.006710   0.015391
               7          8          9         10         11         12
     1  C   -0.003703  -0.018073  -0.057970  -3.242865   0.010696   0.011558
     2  C    0.067969   0.025013   0.000295   0.217624  -0.015031  -0.015523
     3  C   -0.067786   0.017952   0.011941  -3.311597   0.015401   0.015506
     4  C    0.359868  -0.064140   0.005191   0.976932  -0.001457  -0.001739
     5  C   -0.069199   0.461065  -0.056154  -0.531088   0.007254   0.007486
     6  C   -0.015483  -0.057486   0.426129  -0.348224   0.021811   0.022402
     7  H    0.456715  -0.010421   0.002183   0.012280  -0.000177  -0.000183
     8  H   -0.010421   0.474940  -0.012076  -0.025630   0.000364   0.000372
     9  H    0.002183  -0.012076   0.457575   0.053268  -0.001495  -0.001508
    10  C    0.012280  -0.025630   0.053268  22.714704   0.221960   0.219283
    11  H   -0.000177   0.000364  -0.001495   0.221960   0.486137  -0.043295
    12  H   -0.000183   0.000372  -0.001508   0.219283  -0.043295   0.486009
    13  C    0.036404  -0.008628  -0.007250   0.654479  -0.033816  -0.034459
    14  C    0.003385   0.004902  -0.029423  -6.015232   0.039620   0.040778
    15  C   -0.002784   0.001034   0.000362   0.016806   0.002972   0.002903
    16  C   -0.001595   0.001288  -0.005873  -3.365883   0.049571   0.050738
    17  C    0.000283  -0.000480  -0.001200   0.323218  -0.002414  -0.002351
    18  H   -0.000096   0.000037  -0.000007  -0.016830   0.000078   0.000075
    19  H    0.000051  -0.000015   0.000283   0.019404  -0.000477  -0.000473
    20  H    0.000023  -0.000003  -0.000017  -0.013415   0.000119   0.000121
    21  N   -0.003274   0.001217  -0.001051   0.037046   0.002722   0.002746
    22  B   -0.016290   0.000071   0.001953   0.062725   0.000297   0.000305
    23  H   -0.000622   0.000316  -0.000094  -0.000760  -0.000374  -0.000023
    24  H   -0.000597   0.000314  -0.000094  -0.000563  -0.000022  -0.000378
              13         14         15         16         17         18
     1  C   -0.211080   0.348717  -0.002808   0.538720  -0.290310   0.001588
     2  C    1.379695  -0.399447  -0.067075  -1.459341  -0.262451   0.003049
     3  C   -1.334814   0.372329  -0.060195   0.350412  -0.144238   0.017754
     4  C    0.090134  -0.182408   0.010389  -0.170123   0.032814   0.004934
     5  C   -0.404634  -0.086711   0.011145   0.039517  -0.012323   0.000538
     6  C   -1.188885  -0.947552   0.026734   0.115061  -0.093624  -0.000021
     7  H    0.036404   0.003385  -0.002784  -0.001595   0.000283  -0.000096
     8  H   -0.008628   0.004902   0.001034   0.001288  -0.000480   0.000037
     9  H   -0.007250  -0.029423   0.000362  -0.005873  -0.001200  -0.000007
    10  C    0.654479  -6.015232   0.016806  -3.365883   0.323218  -0.016830
    11  H   -0.033816   0.039620   0.002972   0.049571  -0.002414   0.000078
    12  H   -0.034459   0.040778   0.002903   0.050738  -0.002351   0.000075
    13  C    8.403651   0.866067  -0.590083  -1.232846   0.317701   0.027662
    14  C    0.866067  10.377406   0.039487   0.748822  -0.108700  -0.018619
    15  C   -0.590083   0.039487   5.847923  -0.134984   0.143013   0.385970
    16  C   -1.232846   0.748822  -0.134984   9.698876   0.517193   0.012484
    17  C    0.317701  -0.108700   0.143013   0.517193   5.826495  -0.025864
    18  H    0.027662  -0.018619   0.385970   0.012484  -0.025864   0.410821
    19  H    0.048626  -0.022730   0.006257   0.275549  -0.009697   0.000846
    20  H   -0.007381   0.008867  -0.063879   0.018327   0.399457  -0.002543
    21  N   -0.297509  -0.099584   0.388506  -0.278326  -0.153284  -0.047452
    22  B   -0.207490  -0.058571  -0.013922  -0.114523  -0.047671  -0.002227
    23  H    0.025820   0.004778   0.026992   0.024674  -0.003760   0.005421
    24  H    0.025597   0.004834   0.026954   0.024625  -0.003706   0.005414
              19         20         21         22         23         24
     1  C   -0.004417  -0.002882   0.010126  -0.003669  -0.001637  -0.001520
     2  C    0.009958  -0.017275  -0.247278   0.053445   0.024737   0.024408
     3  C    0.003766  -0.000607   0.223218   0.353257  -0.093793  -0.094123
     4  C    0.000797   0.000261   0.072056   0.089847  -0.067190  -0.066120
     5  C   -0.001165  -0.000318   0.029803   0.016555   0.006808   0.006710
     6  C    0.002006  -0.002021  -0.017293   0.000007   0.015448   0.015391
     7  H    0.000051   0.000023  -0.003274  -0.016290  -0.000622  -0.000597
     8  H   -0.000015  -0.000003   0.001217   0.000071   0.000316   0.000314
     9  H    0.000283  -0.000017  -0.001051   0.001953  -0.000094  -0.000094
    10  C    0.019404  -0.013415   0.037046   0.062725  -0.000760  -0.000563
    11  H   -0.000477   0.000119   0.002722   0.000297  -0.000374  -0.000022
    12  H   -0.000473   0.000121   0.002746   0.000305  -0.000023  -0.000378
    13  C    0.048626  -0.007381  -0.297509  -0.207490   0.025820   0.025597
    14  C   -0.022730   0.008867  -0.099584  -0.058571   0.004778   0.004834
    15  C    0.006257  -0.063879   0.388506  -0.013922   0.026992   0.026954
    16  C    0.275549   0.018327  -0.278326  -0.114523   0.024674   0.024625
    17  C   -0.009697   0.399457  -0.153284  -0.047671  -0.003760  -0.003706
    18  H    0.000846  -0.002543  -0.047452  -0.002227   0.005421   0.005414
    19  H    0.411200  -0.003720  -0.002949   0.001283   0.000074   0.000075
    20  H   -0.003720   0.419919   0.012407  -0.000813  -0.000103  -0.000100
    21  N   -0.002949   0.012407   7.159627   0.177889  -0.086783  -0.087016
    22  B    0.001283  -0.000813   0.177889   3.942335   0.390623   0.390720
    23  H    0.000074  -0.000103  -0.086783   0.390623   0.769224   0.017598
    24  H    0.000075  -0.000100  -0.087016   0.390720   0.017598   0.768858
 Mulliken charges:
               1
     1  C    0.719856
     2  C    0.478150
     3  C    0.274116
     4  C   -0.606143
     5  C   -0.253378
     6  C   -0.631865
     7  H    0.253048
     8  H    0.208068
     9  H    0.215033
    10  C   -2.657640
    11  H    0.239558
    12  H    0.239650
    13  C   -0.316962
    14  C    1.108985
    15  C   -0.001715
    16  C    0.297634
    17  C   -0.398100
    18  H    0.236988
    19  H    0.265467
    20  H    0.255574
    21  N    0.204438
    22  B   -0.016134
    23  H   -0.057372
    24  H   -0.057255
 Sum of Mulliken charges =  -0.00000
 Mulliken charges with hydrogens summed into heavy atoms:
               1
     1  C    0.719856
     2  C    0.478150
     3  C    0.274116
     4  C   -0.353095
     5  C   -0.045310
     6  C   -0.416832
    10  C   -2.178433
    13  C   -0.316962
    14  C    1.108985
    15  C    0.235273
    16  C    0.563101
    17  C   -0.142526
    21  N    0.204438
    22  B   -0.130762
 Electronic spatial extent (au):  <R**2>=           3630.3994
 Charge=              0.0000 electrons
 Dipole moment (field-independent basis, Debye):
    X=             -1.7199    Y=             -4.7907    Z=             -3.4577  Tot=              6.1535
 Quadrupole moment (field-independent basis, Debye-Ang):
   XX=            -85.3494   YY=            -71.6694   ZZ=            -86.0705
   XY=            -18.3099   XZ=             -5.2517   YZ=              0.7544
 Traceless Quadrupole moment (field-independent basis, Debye-Ang):
   XX=             -4.3196   YY=              9.3603   ZZ=             -5.0407
   XY=            -18.3099   XZ=             -5.2517   YZ=              0.7544
 Octapole moment (field-independent basis, Debye-Ang**2):
  XXX=           -492.5509  YYY=            -60.5315  ZZZ=            -65.8276  XYY=           -140.6674
  XXY=            -86.1075  XXZ=            -32.5159  XZZ=           -180.2361  YZZ=            -24.0553
  YYZ=            -17.3576  XYZ=             -7.3290
 Hexadecapole moment (field-independent basis, Debye-Ang**3):
 XXXX=          -2990.5330 YYYY=          -1608.5449 ZZZZ=           -575.0541 XXXY=            -76.1689
 XXXZ=           -308.0518 YYYX=            118.7587 YYYZ=           -101.0776 ZZZX=           -321.5479
 ZZZY=           -183.2484 XXYY=           -700.8465 XXZZ=           -658.8517 YYZZ=           -380.1770
 XXYZ=           -129.0338 YYXZ=            -88.6923 ZZXY=             57.7770
 N-N= 8.003127360270D+02 E-N=-2.859917679925D+03  KE= 5.405243844975D+02
 Breneman (CHELPG) radii used.
 Generate Potential Derived Charges using the Breneman model, NDens= 1.
 Grid spacing= 0.300 Box extension= 2.800
 NStep X,Y,Z=   41     45     37   Total possible points=       68265
 Number of Points to Fit=   15758

 **********************************************************************

            Electrostatic Properties Using The SCF Density.

 **********************************************************************

       Atomic Center    1 is at   0.497879  0.755684 -0.560840
       Atomic Center    2 is at   1.629767  0.767592  0.226256
       Atomic Center    3 is at   2.205802  1.698086  1.066121
       Atomic Center    4 is at   1.441555  2.873411  1.096491
       Atomic Center    5 is at   0.265618  2.960640  0.325847
       Atomic Center    6 is at  -0.234188  1.935985 -0.505793
       Atomic Center    7 is at   1.725923  3.730121  1.699606
       Atomic Center    8 is at  -0.301168  3.885531  0.373694
       Atomic Center    9 is at  -1.150870  2.095477 -1.062806
       Atomic Center   10 is at   0.439120 -0.624900 -1.255769
       Atomic Center   11 is at   0.462119 -0.535452 -2.345398
       Atomic Center   12 is at  -0.469228 -1.175047 -0.994689
       Atomic Center   13 is at   2.314057 -0.441849  0.125468
       Atomic Center   14 is at   1.699990 -1.342549 -0.725646
       Atomic Center   15 is at   4.062325 -1.712789  0.730940
       Atomic Center   16 is at   2.362517 -2.548673 -0.839514
       Atomic Center   17 is at   3.554935 -2.709926 -0.092191
       Atomic Center   18 is at   4.974218 -1.843557  1.299143
       Atomic Center   19 is at   2.012215 -3.361235 -1.466506
       Atomic Center   20 is at   4.100049 -3.642789 -0.157692
       Atomic Center   21 is at   3.418738 -0.533848  0.845171
       Atomic Center   22 is at   3.563034  0.964669  1.655737
       Atomic Center   23 is at   4.609275  1.452009  1.291998
       Atomic Center   24 is at   3.540273  0.717711  2.840197
   15758 points will be used for fitting atomic charges
 Fitting point charges to electrostatic potential
 Charges from ESP fit, RMS=   0.00421 RRMS=   0.20106:
 ESP charges:
               1
     1  C    0.024337
     2  C   -0.051292
     3  C   -0.088687
     4  C   -0.128971
     5  C   -0.082236
     6  C   -0.204855
     7  H    0.095066
     8  H    0.095676
     9  H    0.122902
    10  C    0.103238
    11  H    0.025099
    12  H    0.025247
    13  C    0.183420
    14  C   -0.074688
    15  C    0.052299
    16  C   -0.017103
    17  C   -0.214459
    18  H    0.125413
    19  H    0.118097
    20  H    0.131944
    21  N   -0.107267
    22  B    0.331729
    23  H   -0.232421
    24  H   -0.232486
 Sum of ESP charges =  -0.00000
 ESP charges with hydrogens summed into heavy atoms:
               1
     1  C    0.024337
     2  C   -0.051292
     3  C   -0.088687
     4  C   -0.033905
     5  C    0.013440
     6  C   -0.081953
    10  C    0.153584
    13  C    0.183420
    14  C   -0.074688
    15  C    0.177712
    16  C    0.100993
    17  C   -0.082514
    21  N   -0.107267
    22  B   -0.133178
 Charge=  -0.00000 Dipole=    -1.7172    -4.7427    -3.4334 Tot=     6.1017
 -----------------------------------------------------------------

              Electrostatic Properties (Atomic Units)

 -----------------------------------------------------------------
    Center     Electric         -------- Electric Field --------
               Potential          X             Y             Z
 -----------------------------------------------------------------
    1 Atom    -14.757238
    2 Atom    -14.802249
    3 Atom    -14.802459
    4 Atom    -14.784647
    5 Atom    -14.776013
    6 Atom    -14.769449
    7 Atom     -1.127397
    8 Atom     -1.114940
    9 Atom     -1.102064
   10 Atom    -14.726359
   11 Atom     -1.077900
   12 Atom     -1.077909
   13 Atom    -14.735881
   14 Atom    -14.731213
   15 Atom    -14.702877
   16 Atom    -14.719044
   17 Atom    -14.736009
   18 Atom     -1.066379
   19 Atom     -1.060385
   20 Atom     -1.068986
   21 Atom    -18.339048
   22 Atom    -11.502072
   23 Atom     -1.210291
   24 Atom     -1.210275
 -----------------------------------------------------------------
 Unable to Open any file for archive entry.
 1\1\GINC-IRENE4086\SP\RwB97XD\GenECP\C12H10B1N1\PENASFRA\10-Apr-2024\0
 \\# wb97xd/genecp scrf=(solvent=toluene,pcm) nosymm pop=(chelpg) scfcy
 c=300\\h_indenoPy_chelpg\\0,1\C,0,0.497879,0.755684,-0.56084\C,0,1.629
 767,0.767592,0.226256\C,0,2.205802,1.698086,1.066121\C,0,1.441555,2.87
 3411,1.096491\C,0,0.265618,2.96064,0.325847\C,0,-0.234188,1.935985,-0.
 505793\H,0,1.725923,3.730121,1.699606\H,0,-0.301168,3.885531,0.373694\
 H,0,-1.15087,2.095477,-1.062806\C,0,0.43912,-0.6249,-1.255769\H,0,0.46
 2119,-0.535452,-2.345398\H,0,-0.469228,-1.175047,-0.994689\C,0,2.31405
 7,-0.441849,0.125468\C,0,1.69999,-1.342549,-0.725646\C,0,4.062325,-1.7
 12789,0.73094\C,0,2.362517,-2.548673,-0.839514\C,0,3.554935,-2.709926,
 -0.092191\H,0,4.974218,-1.843557,1.299143\H,0,2.012215,-3.361235,-1.46
 6506\H,0,4.100049,-3.642789,-0.157692\N,0,3.418738,-0.533848,0.845171\
 B,0,3.563034,0.964669,1.655737\H,0,4.609275,1.452009,1.291998\H,0,3.54
 0273,0.717711,2.840197\\Version=AS64L-G16RevC.02\HF=-542.8406914\RMSD=
 5.064e-09\Dipole=-0.676672,-1.8848196,-1.3603686\Quadrupole=-3.2115314
 ,6.9591642,-3.7476328,-13.6129307,-3.9044903,0.5608564\PG=C01 [X(C12H1
 0B1N1)]\\@
 The archive entry for this job was punched.


 THERE IS NO SCIENCE WITHOUT FANCY, NOR ART WITHOUT FACTS.
     -- VLADIMIR NABAKOV
 Job cpu time:       0 days  0 hours 43 minutes 16.4 seconds.
 Elapsed time:       0 days  0 hours  0 minutes 27.3 seconds.
 File lengths (MBytes):  RWF=    138 Int=      0 D2E=      0 Chk=     10 Scr=      1
 Normal termination of Gaussian 16 at Wed Apr 10 16:20:43 2024.
