 Entering Gaussian System, Link 0=/ccc/products/gaussian-16-C.02/system/default/g16/g16
 Input=h_meimidazolol_chelpg.gjf
 Output=h_meimidazolol_chelpg.log
 Initial command:
 /ccc/products/gaussian-16-C.02/system/default/g16/l1.exe "/ccc/scratch/cont003/gen7343/penasfra/flp/b-n_flp/h_meimidazolol/Reactant/Gau-61529.inp" -scrdir="/ccc/scratch/cont003/gen7343/penasfra/flp/b-n_flp/h_meimidazolol/Reactant/"
 Entering Link 1 = /ccc/products/gaussian-16-C.02/system/default/g16/l1.exe PID=     61578.
  
 Copyright (c) 1988-2021, Gaussian, Inc.  All Rights Reserved.
  
 This is part of the Gaussian(R) 16 program.  It is based on
 the Gaussian(R) 09 system (copyright 2009, Gaussian, Inc.),
 the Gaussian(R) 03 system (copyright 2003, Gaussian, Inc.),
 the Gaussian(R) 98 system (copyright 1998, Gaussian, Inc.),
 the Gaussian(R) 94 system (copyright 1995, Gaussian, Inc.),
 the Gaussian 92(TM) system (copyright 1992, Gaussian, Inc.),
 the Gaussian 90(TM) system (copyright 1990, Gaussian, Inc.),
 the Gaussian 88(TM) system (copyright 1988, Gaussian, Inc.),
 the Gaussian 86(TM) system (copyright 1986, Carnegie Mellon
 University), and the Gaussian 82(TM) system (copyright 1983,
 Carnegie Mellon University). Gaussian is a federally registered
 trademark of Gaussian, Inc.
  
 This software contains proprietary and confidential information,
 including trade secrets, belonging to Gaussian, Inc.
  
 This software is provided under written license and may be
 used, copied, transmitted, or stored only in accord with that
 written license.
  
 The following legend is applicable only to US Government
 contracts under FAR:
  
                    RESTRICTED RIGHTS LEGEND
  
 Use, reproduction and disclosure by the US Government is
 subject to restrictions as set forth in subparagraphs (a)
 and (c) of the Commercial Computer Software - Restricted
 Rights clause in FAR 52.227-19.
  
 Gaussian, Inc.
 340 Quinnipiac St., Bldg. 40, Wallingford CT 06492
  
  
 ---------------------------------------------------------------
 Warning -- This program may not be used in any manner that
 competes with the business of Gaussian, Inc. or will provide
 assistance to any competitor of Gaussian, Inc.  The licensee
 of this program is prohibited from giving any competitor of
 Gaussian, Inc. access to this program.  By using this program,
 the user acknowledges that Gaussian, Inc. is engaged in the
 business of creating and licensing software in the field of
 computational chemistry and represents and warrants to the
 licensee that it is not a competitor of Gaussian, Inc. and that
 it will not use this program in any manner prohibited above.
 ---------------------------------------------------------------
  

 Cite this work as:
 Gaussian 16, Revision C.02,
 M. J. Frisch, G. W. Trucks, H. B. Schlegel, G. E. Scuseria, 
 M. A. Robb, J. R. Cheeseman, G. Scalmani, V. Barone, 
 G. A. Petersson, H. Nakatsuji, X. Li, M. Caricato, A. V. Marenich, 
 J. Bloino, B. G. Janesko, R. Gomperts, B. Mennucci, H. P. Hratchian, 
 J. V. Ortiz, A. F. Izmaylov, J. L. Sonnenberg, D. Williams-Young, 
 F. Ding, F. Lipparini, F. Egidi, J. Goings, B. Peng, A. Petrone, 
 T. Henderson, D. Ranasinghe, V. G. Zakrzewski, J. Gao, N. Rega, 
 G. Zheng, W. Liang, M. Hada, M. Ehara, K. Toyota, R. Fukuda, 
 J. Hasegawa, M. Ishida, T. Nakajima, Y. Honda, O. Kitao, H. Nakai, 
 T. Vreven, K. Throssell, J. A. Montgomery, Jr., J. E. Peralta, 
 F. Ogliaro, M. J. Bearpark, J. J. Heyd, E. N. Brothers, K. N. Kudin, 
 V. N. Staroverov, T. A. Keith, R. Kobayashi, J. Normand, 
 K. Raghavachari, A. P. Rendell, J. C. Burant, S. S. Iyengar, 
 J. Tomasi, M. Cossi, J. M. Millam, M. Klene, C. Adamo, R. Cammi, 
 J. W. Ochterski, R. L. Martin, K. Morokuma, O. Farkas, 
 J. B. Foresman, and D. J. Fox, Gaussian, Inc., Wallingford CT, 2019.
 
 ******************************************
 Gaussian 16:  AS64L-G16RevC.02  7-Dec-2021
                 9-Apr-2024 
 ******************************************
 %nprocshared=128
 Will use up to  128 processors via shared memory.
 %mem=30GB
 %chk=h_meimidazolol_chelpg.chk
 ----------------------------------------------------------------------
 # wb97xd/genecp scrf=(solvent=toluene,pcm) nosymm pop=(chelpg) scfcyc=
 300
 ----------------------------------------------------------------------
 1/38=1,172=1/1;
 2/12=2,15=1,17=6,18=5,40=1/2;
 3/5=7,11=2,16=1,17=8,25=1,30=1,70=2201,72=13,74=-58/1,2,3;
 4//1;
 5/5=2,7=300,38=5,53=13/2;
 6/7=2,8=2,9=2,10=2,15=8,20=3,28=1/1,2;
 99/5=1,9=1/99;
 ---------------------
 h_meimidazolol_chelpg
 ---------------------
 Symbolic Z-matrix:
 Charge =  0 Multiplicity = 1
 C                     2.73828   1.62033   1.03631 
 H                     2.90085   2.21539   1.92157 
 C                     3.18458   0.35677   0.70215 
 N                     1.98326   2.07574  -0.00401 
 N                     2.68711   0.03783  -0.57407 
 B                     4.05897  -0.53035   1.56449 
 C                     1.2942    3.34746  -0.13172 
 H                     1.66707   3.89267  -0.99942 
 H                     0.2214    3.18595  -0.24271 
 H                     1.4788    3.93262   0.76734 
 H                     4.40979  -0.12542   2.63633 
 H                     4.3996   -1.6143    1.19517 
 C                     1.999     1.07124  -0.93178 
 O                     1.32552   1.25439  -2.07234 
 H                     1.43833   0.463    -2.60794 
 
                          Input orientation:                          
 ---------------------------------------------------------------------
 Center     Atomic      Atomic             Coordinates (Angstroms)
 Number     Number       Type             X           Y           Z
 ---------------------------------------------------------------------
      1          6           0        2.738282    1.620327    1.036310
      2          1           0        2.900846    2.215389    1.921565
      3          6           0        3.184582    0.356773    0.702151
      4          7           0        1.983256    2.075737   -0.004006
      5          7           0        2.687114    0.037832   -0.574069
      6          5           0        4.058971   -0.530348    1.564485
      7          6           0        1.294204    3.347458   -0.131716
      8          1           0        1.667065    3.892671   -0.999415
      9          1           0        0.221398    3.185953   -0.242709
     10          1           0        1.478799    3.932623    0.767342
     11          1           0        4.409789   -0.125419    2.636329
     12          1           0        4.399603   -1.614302    1.195166
     13          6           0        1.998997    1.071240   -0.931782
     14          8           0        1.325517    1.254386   -2.072336
     15          1           0        1.438325    0.463003   -2.607937
 ---------------------------------------------------------------------
                    Distance matrix (angstroms):
                    1          2          3          4          5
     1  C    0.000000
     2  H    1.078982   0.000000
     3  C    1.381092   2.240966   0.000000
     4  N    1.363715   2.137592   2.212844   0.000000
     5  N    2.258369   3.318979   1.406391   2.230122   0.000000
     6  B    2.578486   3.001305   1.514978   3.682450   2.603504
     7  C    2.536263   2.842330   3.634977   1.452025   3.617941
     8  H    3.233455   3.587146   4.207227   2.095725   4.010138
     9  H    3.228278   3.578480   4.204459   2.096116   4.012508
    10  H    2.646763   2.510646   3.962404   2.073036   4.292878
    11  H    2.898556   2.875270   2.339805   4.207674   3.647042
    12  H    3.639787   4.176178   2.367378   4.570901   2.965191
    13  C    2.172884   3.203747   2.141451   1.367491   1.292051
    14  O    3.434166   4.399595   3.458267   2.320609   2.361939
    15  H    4.038542   5.072101   3.743979   3.110999   2.424224
                    6          7          8          9         10
     6  B    0.000000
     7  C    5.055533   0.000000
     8  H    5.644280   1.090497   0.000000
     9  H    5.639487   1.090558   1.778203   0.000000
    10  H    5.216401   1.088485   1.777209   1.777295   0.000000
    11  H    1.198286   5.424926   6.073402   6.066025   5.343362
    12  H    1.194731   6.001931   6.527611   6.524364   6.283511
    13  C    3.611084   2.513565   2.841694   2.847225   3.368255
    14  O    4.887076   2.854459   2.868512   2.880549   3.906433
    15  H    5.026295   3.804277   3.795035   3.806530   4.840703
                   11         12         13         14         15
    11  H    0.000000
    12  H    2.072155   0.000000
    13  C    4.469377   4.183175   0.000000
    14  O    5.795526   5.325030   1.337154   0.000000
    15  H    6.056250   5.248615   1.869171   0.962227   0.000000
 Symmetry turned off by external request.
 Stoichiometry    C4H7BN2O
 Framework group  C1[X(C4H7BN2O)]
 Deg. of freedom    39
 Full point group                 C1      NOp   1
 Rotational constants (GHZ):           4.0380861           1.8237912           1.2663924
 General basis read from cards:  (5D, 7F)
 ======================================================================================================
                                       Pseudopotential Parameters
 ======================================================================================================
  Center     Atomic      Valence      Angular      Power
  Number     Number     Electrons     Momentum     of R      Exponent        Coefficient   SO-Coeffient
 ======================================================================================================
    1          6
                                   No pseudopotential on this center.
    2          1
                                   No pseudopotential on this center.
    3          6
                                   No pseudopotential on this center.
    4          7
                                   No pseudopotential on this center.
    5          7
                                   No pseudopotential on this center.
    6          5
                                   No pseudopotential on this center.
    7          6
                                   No pseudopotential on this center.
    8          1
                                   No pseudopotential on this center.
    9          1
                                   No pseudopotential on this center.
   10          1
                                   No pseudopotential on this center.
   11          1
                                   No pseudopotential on this center.
   12          1
                                   No pseudopotential on this center.
   13          6
                                   No pseudopotential on this center.
   14          8
                                   No pseudopotential on this center.
   15          1
                                   No pseudopotential on this center.
 ======================================================================================================
   225 basis functions,   351 primitive gaussians,   233 cartesian basis functions
    29 alpha electrons       29 beta electrons
       nuclear repulsion energy       353.0927521995 Hartrees.
 NAtoms=   15 NActive=   15 NUniq=   15 SFac= 1.00D+00 NAtFMM=   60 NAOKFM=F Big=F
 Integral buffers will be    131072 words long.
 Raffenetti 2 integral format.
 Two-electron integral symmetry is turned off.
 Nuclear repulsion after empirical dispersion term =      353.0862142685 Hartrees.
 ------------------------------------------------------------------------------
 Polarizable Continuum Model (PCM)
 =================================
 Model                : PCM.
 Atomic radii         : UFF (Universal Force Field).
 Polarization charges : Total charges.
 Charge compensation  : None.
 Solution method      : On-the-fly selection.
 Cavity type          : Scaled VdW (van der Waals Surface) (Alpha=1.100).
 Cavity algorithm     : GePol (No added spheres)
                        Default sphere list used, NSphG=   15.
                        Lebedev-Laikov grids with approx.  5.0 points / Ang**2.
                        Smoothing algorithm: York/Karplus (Gamma=1.0000).
                        Polarization charges: spherical gaussians, with
                                              point-specific exponents (IZeta= 3).
                        Self-potential: point-specific (ISelfS= 7).
                        Self-field    : sphere-specific E.n sum rule (ISelfD= 2).
 Solvent              : Toluene, Eps=   2.374100 Eps(inf)=   2.238315
 ------------------------------------------------------------------------------
 Spheres list:
 ISph  on   Nord     Re0    Alpha      Xe            Ye            Ze
    1   C      1    1.9255  1.100      2.738282      1.620327      1.036310
    2   H      2    1.4430  1.100      2.900846      2.215389      1.921565
    3   C      3    1.9255  1.100      3.184582      0.356773      0.702151
    4   N      4    1.8300  1.100      1.983256      2.075737     -0.004006
    5   N      5    1.8300  1.100      2.687114      0.037832     -0.574069
    6   B      6    2.0415  1.100      4.058971     -0.530348      1.564485
    7   C      7    1.9255  1.100      1.294204      3.347458     -0.131716
    8   H      8    1.4430  1.100      1.667065      3.892671     -0.999415
    9   H      9    1.4430  1.100      0.221398      3.185953     -0.242709
   10   H     10    1.4430  1.100      1.478799      3.932623      0.767342
   11   H     11    1.4430  1.100      4.409789     -0.125419      2.636329
   12   H     12    1.4430  1.100      4.399603     -1.614302      1.195166
   13   C     13    1.9255  1.100      1.998997      1.071240     -0.931782
   14   O     14    1.7500  1.100      1.325517      1.254386     -2.072336
   15   H     15    1.4430  1.100      1.438325      0.463003     -2.607937
 ------------------------------------------------------------------------------
 One-electron integrals computed using PRISM.
   1 Symmetry operations used in ECPInt.
 ECPInt:  NShTT=    3486 NPrTT=   11946 LenC2=    3440 LenP2D=    9168.
 LDataN:  DoStor=T MaxTD1= 4 Len=   56
 NBasis=   225 RedAO= T EigKep=  1.16D-05  NBF=   225
 NBsUse=   225 1.00D-06 EigRej= -1.00D+00 NBFU=   225
 ExpMin= 3.15D-02 ExpMax= 8.59D+03 ExpMxC= 1.30D+03 IAcc=3 IRadAn=         5 AccDes= 0.00D+00
 Harris functional with IExCor= 4639 and IRadAn=       5 diagonalized for initial guess.
 HarFok:  IExCor= 4639 AccDes= 0.00D+00 IRadAn=         5 IDoV= 1 UseB2=F ITyADJ=14
 ICtDFT=  3500011 ScaDFX=  1.000000  1.000000  1.000000  1.000000
 FoFCou: FMM=F IPFlag=           0 FMFlag=      100000 FMFlg1=           0
         NFxFlg=           0 DoJE=T BraDBF=F KetDBF=T FulRan=T
         wScrn=  0.000000 ICntrl=       500 IOpCl=  0 I1Cent=   200000004 NGrid=           0
         NMat0=    1 NMatS0=      1 NMatT0=    0 NMatD0=    1 NMtDS0=    0 NMtDT0=    0
 Symmetry not used in FoFCou.
 Requested convergence on RMS density matrix=1.00D-08 within 300 cycles.
 Requested convergence on MAX density matrix=1.00D-06.
 Requested convergence on             energy=1.00D-06.
 No special actions if energy rises.
 Inv3:  Mode=1 IEnd=     5508075.
 Iteration    1 A*A^-1 deviation from unit magnitude is 4.00D-15 for   1352.
 Iteration    1 A*A^-1 deviation from orthogonality  is 1.54D-15 for   1346    327.
 Iteration    1 A^-1*A deviation from unit magnitude is 4.00D-15 for   1352.
 Iteration    1 A^-1*A deviation from orthogonality  is 2.17D-15 for   1332    738.
 Error on total polarization charges =  0.00880
 SCF Done:  E(RwB97XD) =  -366.187027698     A.U. after   15 cycles
            NFock= 15  Conv=0.44D-08     -V/T= 2.0039

 **********************************************************************

            Population analysis using the SCF Density.

 **********************************************************************

 Alpha  occ. eigenvalues --  -19.30583 -14.50916 -14.41834 -10.40698 -10.33835
 Alpha  occ. eigenvalues --  -10.33239 -10.28731  -6.83551  -1.21574  -1.12790
 Alpha  occ. eigenvalues --   -1.00467  -0.86132  -0.82602  -0.73648  -0.69269
 Alpha  occ. eigenvalues --   -0.64379  -0.59951  -0.59143  -0.57015  -0.54447
 Alpha  occ. eigenvalues --   -0.52060  -0.50885  -0.50278  -0.46126  -0.43293
 Alpha  occ. eigenvalues --   -0.40964  -0.37165  -0.36842  -0.30871
 Alpha virt. eigenvalues --    0.01231   0.03748   0.05211   0.06076   0.06961
 Alpha virt. eigenvalues --    0.07434   0.08272   0.08781   0.08967   0.10611
 Alpha virt. eigenvalues --    0.11455   0.11519   0.12969   0.13318   0.13783
 Alpha virt. eigenvalues --    0.14634   0.15183   0.15597   0.15873   0.17221
 Alpha virt. eigenvalues --    0.17930   0.18366   0.19134   0.19180   0.19707
 Alpha virt. eigenvalues --    0.21451   0.21781   0.21857   0.23736   0.24688
 Alpha virt. eigenvalues --    0.24939   0.25382   0.26247   0.26627   0.27604
 Alpha virt. eigenvalues --    0.27991   0.29379   0.29985   0.31420   0.32178
 Alpha virt. eigenvalues --    0.33095   0.33187   0.34050   0.34757   0.35470
 Alpha virt. eigenvalues --    0.35819   0.37331   0.38110   0.39233   0.40952
 Alpha virt. eigenvalues --    0.41863   0.43871   0.46357   0.48194   0.50697
 Alpha virt. eigenvalues --    0.51439   0.51493   0.53363   0.54707   0.58046
 Alpha virt. eigenvalues --    0.60902   0.61851   0.63224   0.64511   0.65526
 Alpha virt. eigenvalues --    0.67805   0.68167   0.70255   0.72103   0.72834
 Alpha virt. eigenvalues --    0.72985   0.73509   0.75481   0.78612   0.80857
 Alpha virt. eigenvalues --    0.84500   0.85057   0.87528   0.87657   0.91717
 Alpha virt. eigenvalues --    0.92662   0.94938   0.95040   0.98195   1.00029
 Alpha virt. eigenvalues --    1.00613   1.03562   1.04547   1.07306   1.10416
 Alpha virt. eigenvalues --    1.12025   1.14793   1.18685   1.20820   1.22885
 Alpha virt. eigenvalues --    1.25302   1.26465   1.28455   1.30751   1.31130
 Alpha virt. eigenvalues --    1.33632   1.37286   1.45791   1.45995   1.49272
 Alpha virt. eigenvalues --    1.50579   1.51268   1.52237   1.60691   1.63627
 Alpha virt. eigenvalues --    1.63815   1.65531   1.68780   1.71928   1.72426
 Alpha virt. eigenvalues --    1.73952   1.75817   1.79218   1.81716   1.82120
 Alpha virt. eigenvalues --    1.83967   1.87968   1.90362   1.92078   1.95873
 Alpha virt. eigenvalues --    2.00635   2.03240   2.11390   2.11527   2.12467
 Alpha virt. eigenvalues --    2.13710   2.17926   2.18778   2.20921   2.22460
 Alpha virt. eigenvalues --    2.26333   2.27656   2.29166   2.34501   2.45707
 Alpha virt. eigenvalues --    2.50452   2.53738   2.55588   2.58380   2.60321
 Alpha virt. eigenvalues --    2.64642   2.65435   2.66963   2.71023   2.73259
 Alpha virt. eigenvalues --    2.73425   2.77862   2.79655   2.82862   2.87230
 Alpha virt. eigenvalues --    2.90372   2.92178   2.97971   2.98098   2.98653
 Alpha virt. eigenvalues --    3.06232   3.07316   3.10765   3.16052   3.16640
 Alpha virt. eigenvalues --    3.20372   3.26382   3.30763   3.48192   3.53352
 Alpha virt. eigenvalues --    3.64129   3.71475   3.82168   3.82937   3.86386
 Alpha virt. eigenvalues --    3.90334   3.99041   4.03200   4.04955   4.09971
 Alpha virt. eigenvalues --    4.18026   4.61406   4.85158   5.07511   5.08927
 Alpha virt. eigenvalues --    5.34966   5.59511   5.87541  14.79261  23.92385
 Alpha virt. eigenvalues --   23.99442  24.06385  24.23381  35.63901  35.84398
 Alpha virt. eigenvalues --   50.06383
          Condensed to atoms (all electrons):
               1          2          3          4          5          6
     1  C    5.795980   0.397006  -0.021593   0.457180   0.107560   0.036879
     2  H    0.397006   0.451147  -0.029517  -0.048456   0.004038  -0.022876
     3  C   -0.021593  -0.029517   5.983101  -0.316478   0.190034   0.242035
     4  N    0.457180  -0.048456  -0.316478   6.914155  -0.000351   0.023062
     5  N    0.107560   0.004038   0.190034  -0.000351   6.835996  -0.041086
     6  B    0.036879  -0.022876   0.242035   0.023062  -0.041086   3.929667
     7  C   -0.128207  -0.021174   0.031312   0.197492   0.022161   0.010224
     8  H   -0.006715   0.001187  -0.003924  -0.020696  -0.001802  -0.000506
     9  H   -0.006721   0.001200  -0.003504  -0.019983  -0.001853  -0.000530
    10  H   -0.006770  -0.010816   0.022223  -0.061125   0.001590   0.001874
    11  H    0.063689  -0.001548  -0.161272  -0.007398   0.006943   0.483724
    12  H   -0.054663  -0.004460   0.002058   0.000364  -0.013721   0.475104
    13  C   -0.559509   0.025848   0.169705   0.084101   0.220696  -0.047440
    14  O    0.027534   0.001081   0.024734  -0.182478  -0.125513  -0.003552
    15  H   -0.002094   0.000544   0.011633   0.016892  -0.018374  -0.002801
               7          8          9         10         11         12
     1  C   -0.128207  -0.006715  -0.006721  -0.006770   0.063689  -0.054663
     2  H   -0.021174   0.001187   0.001200  -0.010816  -0.001548  -0.004460
     3  C    0.031312  -0.003924  -0.003504   0.022223  -0.161272   0.002058
     4  N    0.197492  -0.020696  -0.019983  -0.061125  -0.007398   0.000364
     5  N    0.022161  -0.001802  -0.001853   0.001590   0.006943  -0.013721
     6  B    0.010224  -0.000506  -0.000530   0.001874   0.483724   0.475104
     7  C    5.144208   0.411493   0.410880   0.402992  -0.000193   0.000500
     8  H    0.411493   0.511945  -0.053704  -0.022955  -0.000269   0.000023
     9  H    0.410880  -0.053704   0.511506  -0.022773  -0.000271   0.000026
    10  H    0.402992  -0.022955  -0.022773   0.505183   0.000604  -0.000018
    11  H   -0.000193  -0.000269  -0.000271   0.000604   0.631666  -0.001348
    12  H    0.000500   0.000023   0.000026  -0.000018  -0.001348   0.660365
    13  C   -0.087530  -0.018608  -0.019462   0.013917  -0.007755  -0.001206
    14  O    0.019108  -0.008995  -0.009302   0.003617   0.000644   0.000208
    15  H   -0.008138   0.000734   0.000733  -0.000711  -0.000126   0.000821
              13         14         15
     1  C   -0.559509   0.027534  -0.002094
     2  H    0.025848   0.001081   0.000544
     3  C    0.169705   0.024734   0.011633
     4  N    0.084101  -0.182478   0.016892
     5  N    0.220696  -0.125513  -0.018374
     6  B   -0.047440  -0.003552  -0.002801
     7  C   -0.087530   0.019108  -0.008138
     8  H   -0.018608  -0.008995   0.000734
     9  H   -0.019462  -0.009302   0.000733
    10  H    0.013917   0.003617  -0.000711
    11  H   -0.007755   0.000644  -0.000126
    12  H   -0.001206   0.000208   0.000821
    13  C    5.766415   0.342919   0.004693
    14  O    0.342919   7.939994   0.263091
    15  H    0.004693   0.263091   0.386986
 Mulliken charges:
               1
     1  C   -0.099556
     2  H    0.256795
     3  C   -0.140547
     4  N   -0.036282
     5  N   -0.186320
     6  B   -0.083778
     7  C   -0.405130
     8  H    0.212791
     9  H    0.213759
    10  H    0.173169
    11  H   -0.007090
    12  H   -0.064054
    13  C    0.113215
    14  O   -0.293091
    15  H    0.346117
 Sum of Mulliken charges =  -0.00000
 Mulliken charges with hydrogens summed into heavy atoms:
               1
     1  C    0.157239
     3  C   -0.140547
     4  N   -0.036282
     5  N   -0.186320
     6  B   -0.154922
     7  C    0.194590
    13  C    0.113215
    14  O    0.053027
 Electronic spatial extent (au):  <R**2>=           2378.0530
 Charge=             -0.0000 electrons
 Dipole moment (field-independent basis, Debye):
    X=             -2.4475    Y=              4.4693    Z=             -0.5118  Tot=              5.1212
 Quadrupole moment (field-independent basis, Debye-Ang):
   XX=            -61.4987   YY=            -36.6557   ZZ=            -44.9786
   XY=              9.5459   XZ=             -1.5707   YZ=              3.9534
 Traceless Quadrupole moment (field-independent basis, Debye-Ang):
   XX=            -13.7877   YY=             11.0553   ZZ=              2.7324
   XY=              9.5459   XZ=             -1.5707   YZ=              3.9534
 Octapole moment (field-independent basis, Debye-Ang**2):
  XXX=           -413.7416  YYY=           -116.5843  ZZZ=            -21.6836  XYY=           -103.0573
  XXY=            -31.0170  XXZ=             -9.4048  XZZ=           -117.8975  YZZ=            -53.6666
  YYZ=              8.1474  XYZ=              7.9479
 Hexadecapole moment (field-independent basis, Debye-Ang**3):
 XXXX=          -2316.9017 YYYY=           -746.4999 ZZZZ=           -417.7577 XXXY=           -193.5093
 XXXZ=           -190.0468 YYYX=           -181.9868 YYYZ=             71.5009 ZZZX=           -181.7387
 ZZZY=             77.3055 XXYY=           -485.1718 XXZZ=           -453.7439 YYZZ=           -222.7147
 XXYZ=             40.7627 YYXZ=            -30.8119 ZZXY=            -67.9623
 N-N= 3.530862142685D+02 E-N=-1.560067633919D+03  KE= 3.647819036384D+02
 Breneman (CHELPG) radii used.
 Generate Potential Derived Charges using the Breneman model, NDens= 1.
 Grid spacing= 0.300 Box extension= 2.800
 NStep X,Y,Z=   34     39     38   Total possible points=       50388
 Number of Points to Fit=   11239

 **********************************************************************

            Electrostatic Properties Using The SCF Density.

 **********************************************************************

       Atomic Center    1 is at   2.738282  1.620327  1.036310
       Atomic Center    2 is at   2.900846  2.215389  1.921565
       Atomic Center    3 is at   3.184582  0.356773  0.702151
       Atomic Center    4 is at   1.983256  2.075737 -0.004006
       Atomic Center    5 is at   2.687114  0.037832 -0.574069
       Atomic Center    6 is at   4.058971 -0.530348  1.564485
       Atomic Center    7 is at   1.294204  3.347458 -0.131716
       Atomic Center    8 is at   1.667065  3.892671 -0.999415
       Atomic Center    9 is at   0.221398  3.185953 -0.242709
       Atomic Center   10 is at   1.478799  3.932623  0.767342
       Atomic Center   11 is at   4.409789 -0.125419  2.636329
       Atomic Center   12 is at   4.399603 -1.614302  1.195166
       Atomic Center   13 is at   1.998997  1.071240 -0.931782
       Atomic Center   14 is at   1.325517  1.254386 -2.072336
       Atomic Center   15 is at   1.438325  0.463003 -2.607937
   11239 points will be used for fitting atomic charges
 Fitting point charges to electrostatic potential
 Charges from ESP fit, RMS=   0.00350 RRMS=   0.16246:
 ESP charges:
               1
     1  C   -0.433129
     2  H    0.223744
     3  C    0.189768
     4  N    0.176766
     5  N   -0.764857
     6  B    0.351266
     7  C   -0.245044
     8  H    0.110151
     9  H    0.110578
    10  H    0.135441
    11  H   -0.194572
    12  H   -0.154518
    13  C    0.677954
    14  O   -0.648393
    15  H    0.464843
 Sum of ESP charges =  -0.00000
 ESP charges with hydrogens summed into heavy atoms:
               1
     1  C   -0.209385
     3  C    0.189768
     4  N    0.176766
     5  N   -0.764857
     6  B    0.002176
     7  C    0.111127
    13  C    0.677954
    14  O   -0.183550
 Charge=  -0.00000 Dipole=    -2.3716     4.3646    -0.4630 Tot=     4.9889
 -----------------------------------------------------------------

              Electrostatic Properties (Atomic Units)

 -----------------------------------------------------------------
    Center     Electric         -------- Electric Field --------
               Potential          X             Y             Z
 -----------------------------------------------------------------
    1 Atom    -14.729611
    2 Atom     -1.059709
    3 Atom    -14.782794
    4 Atom    -18.311910
    5 Atom    -18.427798
    6 Atom    -11.488971
    7 Atom    -14.705541
    8 Atom     -1.075656
    9 Atom     -1.075727
   10 Atom     -1.064156
   11 Atom     -1.175525
   12 Atom     -1.184025
   13 Atom    -14.654096
   14 Atom    -22.305838
   15 Atom     -0.945540
 -----------------------------------------------------------------
 Unable to Open any file for archive entry.
 1\1\GINC-IRENE6259\SP\RwB97XD\GenECP\C4H7B1N2O1\PENASFRA\09-Apr-2024\0
 \\# wb97xd/genecp scrf=(solvent=toluene,pcm) nosymm pop=(chelpg) scfcy
 c=300\\h_meimidazolol_chelpg\\0,1\C,0,2.738282,1.620327,1.03631\H,0,2.
 900846,2.215389,1.921565\C,0,3.184582,0.356773,0.702151\N,0,1.983256,2
 .075737,-0.004006\N,0,2.687114,0.037832,-0.574069\B,0,4.058971,-0.5303
 48,1.564485\C,0,1.294204,3.347458,-0.131716\H,0,1.667065,3.892671,-0.9
 99415\H,0,0.221398,3.185953,-0.242709\H,0,1.478799,3.932623,0.767342\H
 ,0,4.409789,-0.125419,2.636329\H,0,4.399603,-1.614302,1.195166\C,0,1.9
 98997,1.07124,-0.931782\O,0,1.325517,1.254386,-2.072336\H,0,1.438325,0
 .463003,-2.607937\\Version=AS64L-G16RevC.02\HF=-366.1870277\RMSD=4.405
 e-09\Dipole=-0.9629251,1.7583426,-0.2013549\Quadrupole=-10.2508099,8.2
 193347,2.0314752,7.0971134,-1.1677589,2.9392829\PG=C01 [X(C4H7B1N2O1)]
 \\@
 The archive entry for this job was punched.


 HE THAT RISETH LATE MUST TROT ALL DAY.

                  -- BENJAMIN FRANKLIN
 Job cpu time:       0 days  0 hours 20 minutes 43.4 seconds.
 Elapsed time:       0 days  0 hours  0 minutes 12.7 seconds.
 File lengths (MBytes):  RWF=     64 Int=      0 D2E=      0 Chk=      5 Scr=      1
 Normal termination of Gaussian 16 at Tue Apr  9 16:32:29 2024.
