 Entering Gaussian System, Link 0=/ccc/products/gaussian-16-C.02/system/default/g16/g16
 Input=h_metriazolamine_chelpg.gjf
 Output=h_metriazolamine_chelpg.log
 Initial command:
 /ccc/products/gaussian-16-C.02/system/default/g16/l1.exe "/ccc/scratch/cont003/gen7343/penasfra/flp/b-n_flp/h_metriazolamine/Reactant/Gau-143270.inp" -scrdir="/ccc/scratch/cont003/gen7343/penasfra/flp/b-n_flp/h_metriazolamine/Reactant/"
 Entering Link 1 = /ccc/products/gaussian-16-C.02/system/default/g16/l1.exe PID=    143319.
  
 Copyright (c) 1988-2021, Gaussian, Inc.  All Rights Reserved.
  
 This is part of the Gaussian(R) 16 program.  It is based on
 the Gaussian(R) 09 system (copyright 2009, Gaussian, Inc.),
 the Gaussian(R) 03 system (copyright 2003, Gaussian, Inc.),
 the Gaussian(R) 98 system (copyright 1998, Gaussian, Inc.),
 the Gaussian(R) 94 system (copyright 1995, Gaussian, Inc.),
 the Gaussian 92(TM) system (copyright 1992, Gaussian, Inc.),
 the Gaussian 90(TM) system (copyright 1990, Gaussian, Inc.),
 the Gaussian 88(TM) system (copyright 1988, Gaussian, Inc.),
 the Gaussian 86(TM) system (copyright 1986, Carnegie Mellon
 University), and the Gaussian 82(TM) system (copyright 1983,
 Carnegie Mellon University). Gaussian is a federally registered
 trademark of Gaussian, Inc.
  
 This software contains proprietary and confidential information,
 including trade secrets, belonging to Gaussian, Inc.
  
 This software is provided under written license and may be
 used, copied, transmitted, or stored only in accord with that
 written license.
  
 The following legend is applicable only to US Government
 contracts under FAR:
  
                    RESTRICTED RIGHTS LEGEND
  
 Use, reproduction and disclosure by the US Government is
 subject to restrictions as set forth in subparagraphs (a)
 and (c) of the Commercial Computer Software - Restricted
 Rights clause in FAR 52.227-19.
  
 Gaussian, Inc.
 340 Quinnipiac St., Bldg. 40, Wallingford CT 06492
  
  
 ---------------------------------------------------------------
 Warning -- This program may not be used in any manner that
 competes with the business of Gaussian, Inc. or will provide
 assistance to any competitor of Gaussian, Inc.  The licensee
 of this program is prohibited from giving any competitor of
 Gaussian, Inc. access to this program.  By using this program,
 the user acknowledges that Gaussian, Inc. is engaged in the
 business of creating and licensing software in the field of
 computational chemistry and represents and warrants to the
 licensee that it is not a competitor of Gaussian, Inc. and that
 it will not use this program in any manner prohibited above.
 ---------------------------------------------------------------
  

 Cite this work as:
 Gaussian 16, Revision C.02,
 M. J. Frisch, G. W. Trucks, H. B. Schlegel, G. E. Scuseria, 
 M. A. Robb, J. R. Cheeseman, G. Scalmani, V. Barone, 
 G. A. Petersson, H. Nakatsuji, X. Li, M. Caricato, A. V. Marenich, 
 J. Bloino, B. G. Janesko, R. Gomperts, B. Mennucci, H. P. Hratchian, 
 J. V. Ortiz, A. F. Izmaylov, J. L. Sonnenberg, D. Williams-Young, 
 F. Ding, F. Lipparini, F. Egidi, J. Goings, B. Peng, A. Petrone, 
 T. Henderson, D. Ranasinghe, V. G. Zakrzewski, J. Gao, N. Rega, 
 G. Zheng, W. Liang, M. Hada, M. Ehara, K. Toyota, R. Fukuda, 
 J. Hasegawa, M. Ishida, T. Nakajima, Y. Honda, O. Kitao, H. Nakai, 
 T. Vreven, K. Throssell, J. A. Montgomery, Jr., J. E. Peralta, 
 F. Ogliaro, M. J. Bearpark, J. J. Heyd, E. N. Brothers, K. N. Kudin, 
 V. N. Staroverov, T. A. Keith, R. Kobayashi, J. Normand, 
 K. Raghavachari, A. P. Rendell, J. C. Burant, S. S. Iyengar, 
 J. Tomasi, M. Cossi, J. M. Millam, M. Klene, C. Adamo, R. Cammi, 
 J. W. Ochterski, R. L. Martin, K. Morokuma, O. Farkas, 
 J. B. Foresman, and D. J. Fox, Gaussian, Inc., Wallingford CT, 2019.
 
 ******************************************
 Gaussian 16:  AS64L-G16RevC.02  7-Dec-2021
                 9-Apr-2024 
 ******************************************
 %nprocshared=128
 Will use up to  128 processors via shared memory.
 %mem=30GB
 %chk=h_metriazolamine_chelpg.chk
 ----------------------------------------------------------------------
 # wb97xd/genecp scrf=(solvent=toluene,pcm) nosymm pop=(chelpg) scfcyc=
 300
 ----------------------------------------------------------------------
 1/38=1,172=1/1;
 2/12=2,15=1,17=6,18=5,40=1/2;
 3/5=7,11=2,16=1,17=8,25=1,30=1,70=2201,72=13,74=-58/1,2,3;
 4//1;
 5/5=2,7=300,38=5,53=13/2;
 6/7=2,8=2,9=2,10=2,15=8,20=3,28=1/1,2;
 99/5=1,9=1/99;
 -----------------------
 h_metriazolamine_chelpg
 -----------------------
 Symbolic Z-matrix:
 Charge =  0 Multiplicity = 1
 C                     2.64281   1.73067   1.11844 
 C                     3.10249   0.44829   0.77431 
 N                     2.03421   2.20166   0.02382 
 N                     2.09296   1.26757  -0.98636 
 N                     2.71864   0.25482  -0.54364 
 B                     3.84166  -0.55094   1.62194 
 C                     1.40211   3.48479  -0.17969 
 H                     1.07818   3.52774  -1.21734 
 H                     0.53193   3.59467   0.47185 
 H                     2.11383   4.29029   0.01279 
 N                     2.79178   2.4603    2.25736 
 H                     2.09237   3.15452   2.46906 
 H                     3.11708   1.94356   3.05941 
 H                     4.10096  -0.27836   2.76151 
 H                     4.16712  -1.60871   1.17809 
 
                          Input orientation:                          
 ---------------------------------------------------------------------
 Center     Atomic      Atomic             Coordinates (Angstroms)
 Number     Number       Type             X           Y           Z
 ---------------------------------------------------------------------
      1          6           0        2.642808    1.730666    1.118438
      2          6           0        3.102491    0.448290    0.774310
      3          7           0        2.034207    2.201663    0.023815
      4          7           0        2.092964    1.267571   -0.986355
      5          7           0        2.718641    0.254819   -0.543636
      6          5           0        3.841657   -0.550936    1.621939
      7          6           0        1.402113    3.484788   -0.179689
      8          1           0        1.078185    3.527740   -1.217337
      9          1           0        0.531932    3.594674    0.471853
     10          1           0        2.113830    4.290289    0.012788
     11          7           0        2.791775    2.460297    2.257357
     12          1           0        2.092367    3.154516    2.469056
     13          1           0        3.117085    1.943557    3.059407
     14          1           0        4.100962   -0.278362    2.761512
     15          1           0        4.167117   -1.608711    1.178093
 ---------------------------------------------------------------------
                    Distance matrix (angstroms):
                    1          2          3          4          5
     1  C    0.000000
     2  C    1.405070   0.000000
     3  N    1.338071   2.186044   0.000000
     4  N    2.224172   2.188677   1.377107   0.000000
     5  N    2.224042   1.386273   2.140246   1.270094   0.000000
     6  B    2.626111   1.504425   3.660284   3.628787   2.569070
     7  C    2.510259   3.608562   1.444772   2.458462   3.506908
     8  H    3.336670   4.188972   2.052539   2.488271   3.722497
     9  H    2.889359   4.074185   2.097152   3.158892   4.119168
    10  H    2.837948   4.039594   2.090172   3.183637   4.118303
    11  N    1.360768   2.518759   2.372659   3.525989   3.565816
    12  H    2.038260   3.349056   2.624979   3.937058   4.228094
    13  H    2.009383   2.730880   3.233274   4.227762   3.999064
    14  H    2.976928   2.339645   4.232846   4.524210   3.622029
    15  H    3.671310   2.351111   4.516704   4.154509   2.921503
                    6          7          8          9         10
     6  B    0.000000
     7  C    5.048198   0.000000
     8  H    5.686287   1.087882   0.000000
     9  H    5.427989   1.092610   1.776580   0.000000
    10  H    5.386299   1.091980   1.779677   1.788022   0.000000
    11  N    3.251697   2.986626   4.018622   3.095436   2.974318
    12  H    4.184256   2.757060   3.841530   2.572453   2.706232
    13  H    2.968807   3.975961   4.995727   4.013059   3.974363
    14  H    1.200068   5.485959   6.281308   5.742902   5.690057
    15  H    1.192397   5.952525   6.454666   6.386592   6.353906
                   11         12         13         14         15
    11  N    0.000000
    12  H    1.007933   0.000000
    13  H    1.008033   1.692626   0.000000
    14  H    3.077076   3.988062   2.448199   0.000000
    15  H    4.428680   5.353457   4.154578   2.069159   0.000000
 Symmetry turned off by external request.
 Stoichiometry    C3H7BN4
 Framework group  C1[X(C3H7BN4)]
 Deg. of freedom    39
 Full point group                 C1      NOp   1
 Rotational constants (GHZ):           3.5505684           2.1400864           1.3480162
 General basis read from cards:  (5D, 7F)
 ======================================================================================================
                                       Pseudopotential Parameters
 ======================================================================================================
  Center     Atomic      Valence      Angular      Power
  Number     Number     Electrons     Momentum     of R      Exponent        Coefficient   SO-Coeffient
 ======================================================================================================
    1          6
                                   No pseudopotential on this center.
    2          6
                                   No pseudopotential on this center.
    3          7
                                   No pseudopotential on this center.
    4          7
                                   No pseudopotential on this center.
    5          7
                                   No pseudopotential on this center.
    6          5
                                   No pseudopotential on this center.
    7          6
                                   No pseudopotential on this center.
    8          1
                                   No pseudopotential on this center.
    9          1
                                   No pseudopotential on this center.
   10          1
                                   No pseudopotential on this center.
   11          7
                                   No pseudopotential on this center.
   12          1
                                   No pseudopotential on this center.
   13          1
                                   No pseudopotential on this center.
   14          1
                                   No pseudopotential on this center.
   15          1
                                   No pseudopotential on this center.
 ======================================================================================================
   225 basis functions,   351 primitive gaussians,   233 cartesian basis functions
    29 alpha electrons       29 beta electrons
       nuclear repulsion energy       357.0784552248 Hartrees.
 NAtoms=   15 NActive=   15 NUniq=   15 SFac= 1.00D+00 NAtFMM=   60 NAOKFM=F Big=F
 Integral buffers will be    131072 words long.
 Raffenetti 2 integral format.
 Two-electron integral symmetry is turned off.
 Nuclear repulsion after empirical dispersion term =      357.0712799321 Hartrees.
 ------------------------------------------------------------------------------
 Polarizable Continuum Model (PCM)
 =================================
 Model                : PCM.
 Atomic radii         : UFF (Universal Force Field).
 Polarization charges : Total charges.
 Charge compensation  : None.
 Solution method      : On-the-fly selection.
 Cavity type          : Scaled VdW (van der Waals Surface) (Alpha=1.100).
 Cavity algorithm     : GePol (No added spheres)
                        Default sphere list used, NSphG=   15.
                        Lebedev-Laikov grids with approx.  5.0 points / Ang**2.
                        Smoothing algorithm: York/Karplus (Gamma=1.0000).
                        Polarization charges: spherical gaussians, with
                                              point-specific exponents (IZeta= 3).
                        Self-potential: point-specific (ISelfS= 7).
                        Self-field    : sphere-specific E.n sum rule (ISelfD= 2).
 Solvent              : Toluene, Eps=   2.374100 Eps(inf)=   2.238315
 ------------------------------------------------------------------------------
 Spheres list:
 ISph  on   Nord     Re0    Alpha      Xe            Ye            Ze
    1   C      1    1.9255  1.100      2.642808      1.730666      1.118438
    2   C      2    1.9255  1.100      3.102491      0.448290      0.774310
    3   N      3    1.8300  1.100      2.034207      2.201663      0.023815
    4   N      4    1.8300  1.100      2.092964      1.267571     -0.986355
    5   N      5    1.8300  1.100      2.718641      0.254819     -0.543636
    6   B      6    2.0415  1.100      3.841657     -0.550936      1.621939
    7   C      7    1.9255  1.100      1.402113      3.484788     -0.179689
    8   H      8    1.4430  1.100      1.078185      3.527740     -1.217337
    9   H      9    1.4430  1.100      0.531932      3.594674      0.471853
   10   H     10    1.4430  1.100      2.113830      4.290289      0.012788
   11   N     11    1.8300  1.100      2.791775      2.460297      2.257357
   12   H     12    1.4430  1.100      2.092367      3.154516      2.469056
   13   H     13    1.4430  1.100      3.117085      1.943557      3.059407
   14   H     14    1.4430  1.100      4.100962     -0.278362      2.761512
   15   H     15    1.4430  1.100      4.167117     -1.608711      1.178093
 ------------------------------------------------------------------------------
 One-electron integrals computed using PRISM.
   1 Symmetry operations used in ECPInt.
 ECPInt:  NShTT=    3486 NPrTT=   11946 LenC2=    3454 LenP2D=    9249.
 LDataN:  DoStor=T MaxTD1= 4 Len=   56
 NBasis=   225 RedAO= T EigKep=  4.69D-06  NBF=   225
 NBsUse=   225 1.00D-06 EigRej= -1.00D+00 NBFU=   225
 ExpMin= 3.15D-02 ExpMax= 6.29D+03 ExpMxC= 9.49D+02 IAcc=3 IRadAn=         5 AccDes= 0.00D+00
 Harris functional with IExCor= 4639 and IRadAn=       5 diagonalized for initial guess.
 HarFok:  IExCor= 4639 AccDes= 0.00D+00 IRadAn=         5 IDoV= 1 UseB2=F ITyADJ=14
 ICtDFT=  3500011 ScaDFX=  1.000000  1.000000  1.000000  1.000000
 FoFCou: FMM=F IPFlag=           0 FMFlag=      100000 FMFlg1=           0
         NFxFlg=           0 DoJE=T BraDBF=F KetDBF=T FulRan=T
         wScrn=  0.000000 ICntrl=       500 IOpCl=  0 I1Cent=   200000004 NGrid=           0
         NMat0=    1 NMatS0=      1 NMatT0=    0 NMatD0=    1 NMtDS0=    0 NMtDT0=    0
 Symmetry not used in FoFCou.
 Requested convergence on RMS density matrix=1.00D-08 within 300 cycles.
 Requested convergence on MAX density matrix=1.00D-06.
 Requested convergence on             energy=1.00D-06.
 No special actions if energy rises.
 Inv3:  Mode=1 IEnd=     5419008.
 Iteration    1 A*A^-1 deviation from unit magnitude is 3.55D-15 for   1335.
 Iteration    1 A*A^-1 deviation from orthogonality  is 1.77D-15 for   1329    158.
 Iteration    1 A^-1*A deviation from unit magnitude is 3.22D-15 for   1335.
 Iteration    1 A^-1*A deviation from orthogonality  is 5.41D-15 for   1033   1014.
 Error on total polarization charges =  0.00938
 SCF Done:  E(RwB97XD) =  -362.327074246     A.U. after   16 cycles
            NFock= 16  Conv=0.39D-08     -V/T= 2.0038

 **********************************************************************

            Population analysis using the SCF Density.

 **********************************************************************

 Alpha  occ. eigenvalues --  -14.52609 -14.49649 -14.47623 -14.46403 -10.38848
 Alpha  occ. eigenvalues --  -10.34239 -10.28752  -6.84083  -1.21441  -1.07167
 Alpha  occ. eigenvalues --   -1.01782  -0.89327  -0.84379  -0.74563  -0.70486
 Alpha  occ. eigenvalues --   -0.64962  -0.62124  -0.60338  -0.59732  -0.55211
 Alpha  occ. eigenvalues --   -0.51968  -0.51815  -0.46958  -0.45730  -0.42160
 Alpha  occ. eigenvalues --   -0.41649  -0.37306  -0.35701  -0.31882
 Alpha virt. eigenvalues --    0.00856   0.03264   0.05378   0.06415   0.06615
 Alpha virt. eigenvalues --    0.07548   0.07947   0.08529   0.09056   0.09566
 Alpha virt. eigenvalues --    0.10727   0.11822   0.12681   0.13283   0.14103
 Alpha virt. eigenvalues --    0.14995   0.15807   0.16998   0.17286   0.17897
 Alpha virt. eigenvalues --    0.18376   0.19077   0.19401   0.19566   0.20870
 Alpha virt. eigenvalues --    0.21167   0.22087   0.23282   0.23414   0.23991
 Alpha virt. eigenvalues --    0.24412   0.25258   0.25491   0.26175   0.26494
 Alpha virt. eigenvalues --    0.27564   0.28761   0.29831   0.31157   0.31990
 Alpha virt. eigenvalues --    0.32428   0.33135   0.33548   0.33990   0.35078
 Alpha virt. eigenvalues --    0.35399   0.37398   0.37543   0.39166   0.39773
 Alpha virt. eigenvalues --    0.42314   0.44206   0.44649   0.48061   0.48596
 Alpha virt. eigenvalues --    0.50443   0.51347   0.52816   0.55025   0.56809
 Alpha virt. eigenvalues --    0.59102   0.62245   0.63795   0.66574   0.67610
 Alpha virt. eigenvalues --    0.68733   0.68890   0.70512   0.71385   0.71936
 Alpha virt. eigenvalues --    0.74496   0.74732   0.76919   0.81665   0.82642
 Alpha virt. eigenvalues --    0.85391   0.86336   0.87944   0.89512   0.89659
 Alpha virt. eigenvalues --    0.90444   0.93187   0.94698   0.95592   0.96974
 Alpha virt. eigenvalues --    0.98507   0.99556   1.00080   1.01914   1.04457
 Alpha virt. eigenvalues --    1.08524   1.12228   1.12824   1.17896   1.21416
 Alpha virt. eigenvalues --    1.24613   1.25338   1.31293   1.33860   1.35137
 Alpha virt. eigenvalues --    1.36957   1.39483   1.43427   1.50837   1.52940
 Alpha virt. eigenvalues --    1.55444   1.56089   1.60813   1.62008   1.63448
 Alpha virt. eigenvalues --    1.65162   1.68256   1.69476   1.71382   1.73318
 Alpha virt. eigenvalues --    1.74819   1.76055   1.77372   1.83702   1.84168
 Alpha virt. eigenvalues --    1.84199   1.87731   1.93125   1.93412   1.99510
 Alpha virt. eigenvalues --    2.01590   2.05397   2.08639   2.10572   2.11684
 Alpha virt. eigenvalues --    2.12344   2.17151   2.19191   2.22542   2.22916
 Alpha virt. eigenvalues --    2.26624   2.34243   2.35422   2.36523   2.40024
 Alpha virt. eigenvalues --    2.46429   2.51136   2.53550   2.58083   2.59504
 Alpha virt. eigenvalues --    2.63417   2.64243   2.68949   2.69984   2.72543
 Alpha virt. eigenvalues --    2.75320   2.77727   2.80443   2.80941   2.81669
 Alpha virt. eigenvalues --    2.85174   2.86018   2.88025   2.94261   2.95466
 Alpha virt. eigenvalues --    2.99472   3.03780   3.06502   3.08130   3.10557
 Alpha virt. eigenvalues --    3.15525   3.23307   3.28613   3.39193   3.48458
 Alpha virt. eigenvalues --    3.65163   3.65950   3.79024   3.80519   3.87951
 Alpha virt. eigenvalues --    3.92456   4.00391   4.04301   4.11337   4.11935
 Alpha virt. eigenvalues --    4.15676   4.29942   4.69051   4.83347   4.85465
 Alpha virt. eigenvalues --    5.07454   5.20444   5.73357  14.80466  23.89884
 Alpha virt. eigenvalues --   24.05565  24.16504  35.52848  35.63392  35.78342
 Alpha virt. eigenvalues --   35.82865
          Condensed to atoms (all electrons):
               1          2          3          4          5          6
     1  C    9.859817  -3.353298  -0.008884  -0.102843   0.216541   0.025446
     2  C   -3.353298   8.969842  -0.327475   0.342557  -0.063582   0.219330
     3  N   -0.008884  -0.327475   7.459522  -0.350736   0.127209   0.037686
     4  N   -0.102843   0.342557  -0.350736   7.008869   0.216925  -0.030530
     5  N    0.216541  -0.063582   0.127209   0.216925   6.633646  -0.055462
     6  B    0.025446   0.219330   0.037686  -0.030530  -0.055462   3.946464
     7  C   -0.087707  -0.050597   0.156444   0.007382   0.021561   0.000795
     8  H    0.038913  -0.021006  -0.080165   0.048443   0.003349  -0.001598
     9  H   -0.034766   0.032455  -0.017570  -0.022630   0.000200   0.000353
    10  H    0.011514  -0.039680  -0.015835  -0.028801   0.005062  -0.001449
    11  N   -0.101568   0.280850  -0.126090   0.006058  -0.001959  -0.037582
    12  H   -0.065968   0.063351  -0.025692   0.006282  -0.002414   0.001488
    13  H    0.023310  -0.076129   0.009525  -0.003593   0.003005   0.016376
    14  H    0.096767  -0.196914  -0.007663   0.003535   0.011348   0.482417
    15  H   -0.114793   0.064517  -0.008017   0.015624  -0.019725   0.448016
               7          8          9         10         11         12
     1  C   -0.087707   0.038913  -0.034766   0.011514  -0.101568  -0.065968
     2  C   -0.050597  -0.021006   0.032455  -0.039680   0.280850   0.063351
     3  N    0.156444  -0.080165  -0.017570  -0.015835  -0.126090  -0.025692
     4  N    0.007382   0.048443  -0.022630  -0.028801   0.006058   0.006282
     5  N    0.021561   0.003349   0.000200   0.005062  -0.001959  -0.002414
     6  B    0.000795  -0.001598   0.000353  -0.001449  -0.037582   0.001488
     7  C    5.233907   0.393957   0.387812   0.408843  -0.015386  -0.001240
     8  H    0.393957   0.441479  -0.017441  -0.015198  -0.000834   0.000359
     9  H    0.387812  -0.017441   0.541909  -0.060087  -0.008320  -0.004072
    10  H    0.408843  -0.015198  -0.060087   0.524237   0.007170  -0.004537
    11  N   -0.015386  -0.000834  -0.008320   0.007170   6.620029   0.377820
    12  H   -0.001240   0.000359  -0.004072  -0.004537   0.377820   0.406073
    13  H    0.001880   0.000334   0.000206   0.000993   0.375032  -0.038090
    14  H    0.000275   0.000077  -0.000269  -0.000071  -0.010391   0.001494
    15  H   -0.001548  -0.000443   0.000040  -0.000264   0.008688   0.000704
              13         14         15
     1  C    0.023310   0.096767  -0.114793
     2  C   -0.076129  -0.196914   0.064517
     3  N    0.009525  -0.007663  -0.008017
     4  N   -0.003593   0.003535   0.015624
     5  N    0.003005   0.011348  -0.019725
     6  B    0.016376   0.482417   0.448016
     7  C    0.001880   0.000275  -0.001548
     8  H    0.000334   0.000077  -0.000443
     9  H    0.000206  -0.000269   0.000040
    10  H    0.000993  -0.000071  -0.000264
    11  N    0.375032  -0.010391   0.008688
    12  H   -0.038090   0.001494   0.000704
    13  H    0.385612   0.004795  -0.002194
    14  H    0.004795   0.644121  -0.012744
    15  H   -0.002194  -0.012744   0.645949
 Mulliken charges:
               1
     1  C   -0.402482
     2  C    0.155780
     3  N    0.177742
     4  N   -0.116540
     5  N   -0.095704
     6  B   -0.051751
     7  C   -0.456377
     8  H    0.209774
     9  H    0.202179
    10  H    0.208101
    11  N   -0.373516
    12  H    0.284442
    13  H    0.298939
    14  H   -0.016778
    15  H   -0.023809
 Sum of Mulliken charges =  -0.00000
 Mulliken charges with hydrogens summed into heavy atoms:
               1
     1  C   -0.402482
     2  C    0.155780
     3  N    0.177742
     4  N   -0.116540
     5  N   -0.095704
     6  B   -0.092338
     7  C    0.163677
    11  N    0.209865
 Electronic spatial extent (au):  <R**2>=           2749.5856
 Charge=              0.0000 electrons
 Dipole moment (field-independent basis, Debye):
    X=             -2.1541    Y=              5.9144    Z=              4.2524  Tot=              7.5963
 Quadrupole moment (field-independent basis, Debye-Ang):
   XX=            -59.0484   YY=            -30.3116   ZZ=            -43.6635
   XY=              9.0709   XZ=              8.2599   YZ=              7.7096
 Traceless Quadrupole moment (field-independent basis, Debye-Ang):
   XX=            -14.7073   YY=             14.0295   ZZ=              0.6777
   XY=              9.0709   XZ=              8.2599   YZ=              7.7096
 Octapole moment (field-independent basis, Debye-Ang**2):
  XXX=           -421.3723  YYY=           -135.4679  ZZZ=            -54.0012  XYY=           -107.7043
  XXY=            -53.0980  XXZ=            -15.2146  XZZ=           -117.6345  YZZ=            -45.6462
  YYZ=            -13.5225  XYZ=             15.4623
 Hexadecapole moment (field-independent basis, Debye-Ang**3):
 XXXX=          -2366.7208 YYYY=           -936.1204 ZZZZ=           -440.4618 XXXY=           -375.0226
 XXXZ=           -297.0248 YYYX=           -314.0581 YYYZ=            -50.9008 ZZZX=           -227.9550
 ZZZY=             -9.5452 XXYY=           -568.7121 XXZZ=           -448.3950 YYZZ=           -227.8237
 XXYZ=              1.0951 YYXZ=            -85.1644 ZZXY=            -84.0898
 N-N= 3.570712799321D+02 E-N=-1.557669265964D+03  KE= 3.609399696377D+02
 Breneman (CHELPG) radii used.
 Generate Potential Derived Charges using the Breneman model, NDens= 1.
 Grid spacing= 0.300 Box extension= 2.800
 NStep X,Y,Z=   31     40     34   Total possible points=       42160
 Number of Points to Fit=   10743

 **********************************************************************

            Electrostatic Properties Using The SCF Density.

 **********************************************************************

       Atomic Center    1 is at   2.642808  1.730666  1.118438
       Atomic Center    2 is at   3.102491  0.448290  0.774310
       Atomic Center    3 is at   2.034207  2.201663  0.023815
       Atomic Center    4 is at   2.092964  1.267571 -0.986355
       Atomic Center    5 is at   2.718641  0.254819 -0.543636
       Atomic Center    6 is at   3.841657 -0.550936  1.621939
       Atomic Center    7 is at   1.402113  3.484788 -0.179689
       Atomic Center    8 is at   1.078185  3.527740 -1.217337
       Atomic Center    9 is at   0.531932  3.594674  0.471853
       Atomic Center   10 is at   2.113830  4.290289  0.012788
       Atomic Center   11 is at   2.791775  2.460297  2.257357
       Atomic Center   12 is at   2.092367  3.154516  2.469056
       Atomic Center   13 is at   3.117085  1.943557  3.059407
       Atomic Center   14 is at   4.100962 -0.278362  2.761512
       Atomic Center   15 is at   4.167117 -1.608711  1.178093
   10743 points will be used for fitting atomic charges
 Fitting point charges to electrostatic potential
 Charges from ESP fit, RMS=   0.00444 RRMS=   0.14890:
 ESP charges:
               1
     1  C    0.177683
     2  C    0.024828
     3  N    0.444623
     4  N   -0.337061
     5  N   -0.319560
     6  B    0.319434
     7  C   -0.299304
     8  H    0.113364
     9  H    0.112308
    10  H    0.140357
    11  N   -0.843819
    12  H    0.380543
    13  H    0.408423
    14  H   -0.163236
    15  H   -0.158582
 Sum of ESP charges =  -0.00000
 ESP charges with hydrogens summed into heavy atoms:
               1
     1  C    0.177683
     2  C    0.024828
     3  N    0.444623
     4  N   -0.337061
     5  N   -0.319560
     6  B   -0.002385
     7  C    0.066724
    11  N   -0.054853
 Charge=  -0.00000 Dipole=    -2.1792     5.7370     4.1793 Tot=     7.4248
 -----------------------------------------------------------------

              Electrostatic Properties (Atomic Units)

 -----------------------------------------------------------------
    Center     Electric         -------- Electric Field --------
               Potential          X             Y             Z
 -----------------------------------------------------------------
    1 Atom    -14.669450
    2 Atom    -14.781836
    3 Atom    -18.299174
    4 Atom    -18.360210
    5 Atom    -18.394438
    6 Atom    -11.479165
    7 Atom    -14.701193
    8 Atom     -1.067215
    9 Atom     -1.061269
   10 Atom     -1.063778
   11 Atom    -18.334272
   12 Atom     -0.974091
   13 Atom     -0.985616
   14 Atom     -1.157683
   15 Atom     -1.175340
 -----------------------------------------------------------------
 Unable to Open any file for archive entry.
 1\1\GINC-IRENE4878\SP\RwB97XD\GenECP\C3H7B1N4\PENASFRA\09-Apr-2024\0\\
 # wb97xd/genecp scrf=(solvent=toluene,pcm) nosymm pop=(chelpg) scfcyc=
 300\\h_metriazolamine_chelpg\\0,1\C,0,2.642808,1.730666,1.118438\C,0,3
 .102491,0.44829,0.77431\N,0,2.034207,2.201663,0.023815\N,0,2.092964,1.
 267571,-0.986355\N,0,2.718641,0.254819,-0.543636\B,0,3.841657,-0.55093
 6,1.621939\C,0,1.402113,3.484788,-0.179689\H,0,1.078185,3.52774,-1.217
 337\H,0,0.531932,3.594674,0.471853\H,0,2.11383,4.290289,0.012788\N,0,2
 .791775,2.460297,2.257357\H,0,2.092367,3.154516,2.469056\H,0,3.117085,
 1.943557,3.059407\H,0,4.100962,-0.278362,2.761512\H,0,4.167117,-1.6087
 11,1.178093\\Version=AS64L-G16RevC.02\HF=-362.3270742\RMSD=3.915e-09\D
 ipole=-0.8475044,2.3269102,1.6730381\Quadrupole=-10.9344904,10.4306192
 ,0.5038711,6.7439842,6.1410182,5.7318871\PG=C01 [X(C3H7B1N4)]\\@
 The archive entry for this job was punched.


 Experience is what you get when you don't get what you want.
 -- Dan Stanford
 Job cpu time:       0 days  0 hours 22 minutes 20.0 seconds.
 Elapsed time:       0 days  0 hours  0 minutes 13.6 seconds.
 File lengths (MBytes):  RWF=     63 Int=      0 D2E=      0 Chk=      5 Scr=      1
 Normal termination of Gaussian 16 at Tue Apr  9 15:56:02 2024.
