 Entering Gaussian System, Link 0=/ccc/products/gaussian-16-C.02/system/default/g16/g16
 Input=h_metriazole_chelpg.gjf
 Output=h_metriazole_chelpg.log
 Initial command:
 /ccc/products/gaussian-16-C.02/system/default/g16/l1.exe "/ccc/scratch/cont003/gen7343/penasfra/flp/b-n_flp/h_metriazole/Reactant/Gau-534924.inp" -scrdir="/ccc/scratch/cont003/gen7343/penasfra/flp/b-n_flp/h_metriazole/Reactant/"
 Entering Link 1 = /ccc/products/gaussian-16-C.02/system/default/g16/l1.exe PID=    534973.
  
 Copyright (c) 1988-2021, Gaussian, Inc.  All Rights Reserved.
  
 This is part of the Gaussian(R) 16 program.  It is based on
 the Gaussian(R) 09 system (copyright 2009, Gaussian, Inc.),
 the Gaussian(R) 03 system (copyright 2003, Gaussian, Inc.),
 the Gaussian(R) 98 system (copyright 1998, Gaussian, Inc.),
 the Gaussian(R) 94 system (copyright 1995, Gaussian, Inc.),
 the Gaussian 92(TM) system (copyright 1992, Gaussian, Inc.),
 the Gaussian 90(TM) system (copyright 1990, Gaussian, Inc.),
 the Gaussian 88(TM) system (copyright 1988, Gaussian, Inc.),
 the Gaussian 86(TM) system (copyright 1986, Carnegie Mellon
 University), and the Gaussian 82(TM) system (copyright 1983,
 Carnegie Mellon University). Gaussian is a federally registered
 trademark of Gaussian, Inc.
  
 This software contains proprietary and confidential information,
 including trade secrets, belonging to Gaussian, Inc.
  
 This software is provided under written license and may be
 used, copied, transmitted, or stored only in accord with that
 written license.
  
 The following legend is applicable only to US Government
 contracts under FAR:
  
                    RESTRICTED RIGHTS LEGEND
  
 Use, reproduction and disclosure by the US Government is
 subject to restrictions as set forth in subparagraphs (a)
 and (c) of the Commercial Computer Software - Restricted
 Rights clause in FAR 52.227-19.
  
 Gaussian, Inc.
 340 Quinnipiac St., Bldg. 40, Wallingford CT 06492
  
  
 ---------------------------------------------------------------
 Warning -- This program may not be used in any manner that
 competes with the business of Gaussian, Inc. or will provide
 assistance to any competitor of Gaussian, Inc.  The licensee
 of this program is prohibited from giving any competitor of
 Gaussian, Inc. access to this program.  By using this program,
 the user acknowledges that Gaussian, Inc. is engaged in the
 business of creating and licensing software in the field of
 computational chemistry and represents and warrants to the
 licensee that it is not a competitor of Gaussian, Inc. and that
 it will not use this program in any manner prohibited above.
 ---------------------------------------------------------------
  

 Cite this work as:
 Gaussian 16, Revision C.02,
 M. J. Frisch, G. W. Trucks, H. B. Schlegel, G. E. Scuseria, 
 M. A. Robb, J. R. Cheeseman, G. Scalmani, V. Barone, 
 G. A. Petersson, H. Nakatsuji, X. Li, M. Caricato, A. V. Marenich, 
 J. Bloino, B. G. Janesko, R. Gomperts, B. Mennucci, H. P. Hratchian, 
 J. V. Ortiz, A. F. Izmaylov, J. L. Sonnenberg, D. Williams-Young, 
 F. Ding, F. Lipparini, F. Egidi, J. Goings, B. Peng, A. Petrone, 
 T. Henderson, D. Ranasinghe, V. G. Zakrzewski, J. Gao, N. Rega, 
 G. Zheng, W. Liang, M. Hada, M. Ehara, K. Toyota, R. Fukuda, 
 J. Hasegawa, M. Ishida, T. Nakajima, Y. Honda, O. Kitao, H. Nakai, 
 T. Vreven, K. Throssell, J. A. Montgomery, Jr., J. E. Peralta, 
 F. Ogliaro, M. J. Bearpark, J. J. Heyd, E. N. Brothers, K. N. Kudin, 
 V. N. Staroverov, T. A. Keith, R. Kobayashi, J. Normand, 
 K. Raghavachari, A. P. Rendell, J. C. Burant, S. S. Iyengar, 
 J. Tomasi, M. Cossi, J. M. Millam, M. Klene, C. Adamo, R. Cammi, 
 J. W. Ochterski, R. L. Martin, K. Morokuma, O. Farkas, 
 J. B. Foresman, and D. J. Fox, Gaussian, Inc., Wallingford CT, 2019.
 
 ******************************************
 Gaussian 16:  AS64L-G16RevC.02  7-Dec-2021
                 9-Apr-2024 
 ******************************************
 %nprocshared=128
 Will use up to  128 processors via shared memory.
 %mem=30GB
 %chk=h_metriazole_chelpg.chk
 ----------------------------------------------------------------------
 # wb97xd/genecp scrf=(solvent=toluene,pcm) nosymm pop=(chelpg) scfcyc=
 300
 ----------------------------------------------------------------------
 1/38=1,172=1/1;
 2/12=2,15=1,17=6,18=5,40=1/2;
 3/5=7,11=2,16=1,17=8,25=1,30=1,70=2201,72=13,74=-58/1,2,3;
 4//1;
 5/5=2,7=300,38=5,53=13/2;
 6/7=2,8=2,9=2,10=2,15=8,20=3,28=1/1,2;
 99/5=1,9=1/99;
 -------------------
 h_metriazole_chelpg
 -------------------
 Symbolic Z-matrix:
 Charge =  0 Multiplicity = 1
 C                     2.65908   1.66073   1.14698 
 H                     2.71763   2.18785   2.08557 
 C                     3.14807   0.42418   0.75224 
 N                     2.03442   2.16038   0.07768 
 N                     2.11399   1.29199  -0.95989 
 N                     2.77202   0.26505  -0.56634 
 B                     3.94315  -0.60105   1.55339 
 C                     1.33808   3.42423  -0.07782 
 H                     0.96209   3.46438  -1.09779 
 H                     0.50469   3.48018   0.62244 
 H                     2.02511   4.25305   0.0925 
 H                     4.21856  -0.36579   2.69259 
 H                     4.28447  -1.62473   1.04711 
 
                          Input orientation:                          
 ---------------------------------------------------------------------
 Center     Atomic      Atomic             Coordinates (Angstroms)
 Number     Number       Type             X           Y           Z
 ---------------------------------------------------------------------
      1          6           0        2.659078    1.660730    1.146977
      2          1           0        2.717634    2.187850    2.085569
      3          6           0        3.148066    0.424181    0.752243
      4          7           0        2.034419    2.160382    0.077676
      5          7           0        2.113986    1.291993   -0.959894
      6          7           0        2.772019    0.265049   -0.566341
      7          5           0        3.943149   -0.601051    1.553385
      8          6           0        1.338083    3.424230   -0.077821
      9          1           0        0.962088    3.464381   -1.097791
     10          1           0        0.504687    3.480180    0.622442
     11          1           0        2.025110    4.253047    0.092504
     12          1           0        4.218560   -0.365788    2.692593
     13          1           0        4.284468   -1.624729    1.047110
 ---------------------------------------------------------------------
                    Distance matrix (angstroms):
                    1          2          3          4          5
     1  C    0.000000
     2  H    1.078072   0.000000
     3  C    1.387075   2.252456   0.000000
     4  N    1.335386   2.121125   2.170171   0.000000
     5  N    2.207260   3.231377   2.180328   1.355353   0.000000
     6  N    2.212722   3.276087   1.380362   2.133330   1.281603
     7  B    2.632425   3.092422   1.524823   3.666944   3.639509
     8  C    2.520930   2.848167   3.600741   1.451336   2.434443
     9  H    3.342442   3.852954   4.176595   2.057190   2.462753
    10  H    2.868264   2.950931   4.042701   2.092538   3.143532
    11  H    2.869484   2.952446   4.044317   2.092738   3.143769
    12  H    2.987924   3.023628   2.352651   4.241438   4.529694
    13  H    3.666893   4.250779   2.361438   4.508834   4.152869
                    6          7          8          9         10
     6  N    0.000000
     7  B    2.571947   0.000000
     8  C    3.503605   5.064592   0.000000
     9  H    3.714029   5.695893   1.087807   0.000000
    10  H    4.109874   5.417206   1.089976   1.780075   0.000000
    11  H    4.110484   5.419900   1.089933   1.780116   1.786013
    12  H    3.620924   1.195406   5.507865   6.296175   5.733223
    13  H    2.908949   1.191944   5.953036   6.444986   6.366096
                   11         12         13
    11  H    0.000000
    12  H    5.736316   0.000000
    13  H    6.369005   2.072894   0.000000
 Symmetry turned off by external request.
 Stoichiometry    C3H6BN3
 Framework group  C1[X(C3H6BN3)]
 Deg. of freedom    33
 Full point group                 C1      NOp   1
 Rotational constants (GHZ):           7.7324286           2.1490161           1.6998327
 General basis read from cards:  (5D, 7F)
 ======================================================================================================
                                       Pseudopotential Parameters
 ======================================================================================================
  Center     Atomic      Valence      Angular      Power
  Number     Number     Electrons     Momentum     of R      Exponent        Coefficient   SO-Coeffient
 ======================================================================================================
    1          6
                                   No pseudopotential on this center.
    2          1
                                   No pseudopotential on this center.
    3          6
                                   No pseudopotential on this center.
    4          7
                                   No pseudopotential on this center.
    5          7
                                   No pseudopotential on this center.
    6          7
                                   No pseudopotential on this center.
    7          5
                                   No pseudopotential on this center.
    8          6
                                   No pseudopotential on this center.
    9          1
                                   No pseudopotential on this center.
   10          1
                                   No pseudopotential on this center.
   11          1
                                   No pseudopotential on this center.
   12          1
                                   No pseudopotential on this center.
   13          1
                                   No pseudopotential on this center.
 ======================================================================================================
   196 basis functions,   306 primitive gaussians,   203 cartesian basis functions
    25 alpha electrons       25 beta electrons
       nuclear repulsion energy       275.4526375606 Hartrees.
 NAtoms=   13 NActive=   13 NUniq=   13 SFac= 1.00D+00 NAtFMM=   60 NAOKFM=F Big=F
 Integral buffers will be    131072 words long.
 Raffenetti 2 integral format.
 Two-electron integral symmetry is turned off.
 Nuclear repulsion after empirical dispersion term =      275.4477057950 Hartrees.
 ------------------------------------------------------------------------------
 Polarizable Continuum Model (PCM)
 =================================
 Model                : PCM.
 Atomic radii         : UFF (Universal Force Field).
 Polarization charges : Total charges.
 Charge compensation  : None.
 Solution method      : On-the-fly selection.
 Cavity type          : Scaled VdW (van der Waals Surface) (Alpha=1.100).
 Cavity algorithm     : GePol (No added spheres)
                        Default sphere list used, NSphG=   13.
                        Lebedev-Laikov grids with approx.  5.0 points / Ang**2.
                        Smoothing algorithm: York/Karplus (Gamma=1.0000).
                        Polarization charges: spherical gaussians, with
                                              point-specific exponents (IZeta= 3).
                        Self-potential: point-specific (ISelfS= 7).
                        Self-field    : sphere-specific E.n sum rule (ISelfD= 2).
 Solvent              : Toluene, Eps=   2.374100 Eps(inf)=   2.238315
 ------------------------------------------------------------------------------
 Spheres list:
 ISph  on   Nord     Re0    Alpha      Xe            Ye            Ze
    1   C      1    1.9255  1.100      2.659078      1.660730      1.146977
    2   H      2    1.4430  1.100      2.717634      2.187850      2.085569
    3   C      3    1.9255  1.100      3.148066      0.424181      0.752243
    4   N      4    1.8300  1.100      2.034419      2.160382      0.077676
    5   N      5    1.8300  1.100      2.113986      1.291993     -0.959894
    6   N      6    1.8300  1.100      2.772019      0.265049     -0.566341
    7   B      7    2.0415  1.100      3.943149     -0.601051      1.553385
    8   C      8    1.9255  1.100      1.338083      3.424230     -0.077821
    9   H      9    1.4430  1.100      0.962088      3.464381     -1.097791
   10   H     10    1.4430  1.100      0.504687      3.480180      0.622442
   11   H     11    1.4430  1.100      2.025110      4.253047      0.092504
   12   H     12    1.4430  1.100      4.218560     -0.365788      2.692593
   13   H     13    1.4430  1.100      4.284468     -1.624729      1.047110
 ------------------------------------------------------------------------------
 One-electron integrals computed using PRISM.
   1 Symmetry operations used in ECPInt.
 ECPInt:  NShTT=    2628 NPrTT=    9055 LenC2=    2600 LenP2D=    7106.
 LDataN:  DoStor=T MaxTD1= 4 Len=   56
 NBasis=   196 RedAO= T EigKep=  1.16D-05  NBF=   196
 NBsUse=   196 1.00D-06 EigRej= -1.00D+00 NBFU=   196
 ExpMin= 3.15D-02 ExpMax= 6.29D+03 ExpMxC= 9.49D+02 IAcc=3 IRadAn=         5 AccDes= 0.00D+00
 Harris functional with IExCor= 4639 and IRadAn=       5 diagonalized for initial guess.
 HarFok:  IExCor= 4639 AccDes= 0.00D+00 IRadAn=         5 IDoV= 1 UseB2=F ITyADJ=14
 ICtDFT=  3500011 ScaDFX=  1.000000  1.000000  1.000000  1.000000
 FoFCou: FMM=F IPFlag=           0 FMFlag=      100000 FMFlg1=           0
         NFxFlg=           0 DoJE=T BraDBF=F KetDBF=T FulRan=T
         wScrn=  0.000000 ICntrl=       500 IOpCl=  0 I1Cent=   200000004 NGrid=           0
         NMat0=    1 NMatS0=      1 NMatT0=    0 NMatD0=    1 NMtDS0=    0 NMtDT0=    0
 Symmetry not used in FoFCou.
 Requested convergence on RMS density matrix=1.00D-08 within 300 cycles.
 Requested convergence on MAX density matrix=1.00D-06.
 Requested convergence on             energy=1.00D-06.
 No special actions if energy rises.
 Inv3:  Mode=1 IEnd=     4590507.
 Iteration    1 A*A^-1 deviation from unit magnitude is 2.66D-15 for   1236.
 Iteration    1 A*A^-1 deviation from orthogonality  is 1.56D-15 for   1231    780.
 Iteration    1 A^-1*A deviation from unit magnitude is 2.89D-15 for   1236.
 Iteration    1 A^-1*A deviation from orthogonality  is 2.54D-14 for    928    893.
 Error on total polarization charges =  0.00843
 SCF Done:  E(RwB97XD) =  -306.959992597     A.U. after   15 cycles
            NFock= 15  Conv=0.52D-08     -V/T= 2.0039

 **********************************************************************

            Population analysis using the SCF Density.

 **********************************************************************

 Alpha  occ. eigenvalues --  -14.54170 -14.50400 -14.46786 -10.34853 -10.34276
 Alpha  occ. eigenvalues --  -10.30055  -6.85421  -1.22284  -1.03865  -0.91887
 Alpha  occ. eigenvalues --   -0.84858  -0.74301  -0.69912  -0.64656  -0.60102
 Alpha  occ. eigenvalues --   -0.58783  -0.54909  -0.52002  -0.51945  -0.47283
 Alpha  occ. eigenvalues --   -0.42759  -0.41960  -0.39055  -0.36594  -0.36115
 Alpha virt. eigenvalues --   -0.00110   0.03734   0.04682   0.05816   0.06695
 Alpha virt. eigenvalues --    0.07693   0.08159   0.08518   0.08996   0.09288
 Alpha virt. eigenvalues --    0.11187   0.12382   0.13366   0.13956   0.15287
 Alpha virt. eigenvalues --    0.15438   0.16608   0.17244   0.17477   0.17711
 Alpha virt. eigenvalues --    0.18429   0.19386   0.19949   0.21159   0.22291
 Alpha virt. eigenvalues --    0.23184   0.23772   0.23833   0.24770   0.25815
 Alpha virt. eigenvalues --    0.25868   0.27122   0.29078   0.29517   0.30721
 Alpha virt. eigenvalues --    0.31200   0.31238   0.32785   0.33218   0.33936
 Alpha virt. eigenvalues --    0.34362   0.36291   0.37750   0.39495   0.40316
 Alpha virt. eigenvalues --    0.43992   0.46067   0.48234   0.48390   0.50878
 Alpha virt. eigenvalues --    0.51325   0.53777   0.56920   0.58384   0.58990
 Alpha virt. eigenvalues --    0.63319   0.63644   0.66586   0.68960   0.69912
 Alpha virt. eigenvalues --    0.69921   0.70731   0.72248   0.73795   0.76310
 Alpha virt. eigenvalues --    0.80894   0.83050   0.85648   0.87025   0.88115
 Alpha virt. eigenvalues --    0.88923   0.90796   0.91873   0.93765   0.95890
 Alpha virt. eigenvalues --    0.97187   0.97692   0.99812   1.02217   1.06197
 Alpha virt. eigenvalues --    1.09848   1.11764   1.13856   1.20372   1.23463
 Alpha virt. eigenvalues --    1.23846   1.29731   1.34636   1.34941   1.38350
 Alpha virt. eigenvalues --    1.40745   1.45110   1.50324   1.54029   1.55325
 Alpha virt. eigenvalues --    1.61028   1.63108   1.64073   1.66108   1.67279
 Alpha virt. eigenvalues --    1.68577   1.74101   1.74284   1.78550   1.81905
 Alpha virt. eigenvalues --    1.82247   1.83544   1.86699   1.94074   1.98865
 Alpha virt. eigenvalues --    2.00074   2.01369   2.09701   2.11259   2.15363
 Alpha virt. eigenvalues --    2.15725   2.18950   2.20960   2.21829   2.24726
 Alpha virt. eigenvalues --    2.32041   2.36091   2.36357   2.42048   2.49921
 Alpha virt. eigenvalues --    2.50531   2.56650   2.58928   2.61854   2.66722
 Alpha virt. eigenvalues --    2.69797   2.70893   2.73265   2.74550   2.75114
 Alpha virt. eigenvalues --    2.80960   2.83391   2.83578   2.86663   2.90008
 Alpha virt. eigenvalues --    2.93795   2.97786   3.03876   3.05764   3.07329
 Alpha virt. eigenvalues --    3.16621   3.24561   3.29316   3.47952   3.63656
 Alpha virt. eigenvalues --    3.72010   3.77637   3.78154   3.87994   3.92624
 Alpha virt. eigenvalues --    4.02700   4.11025   4.12051   4.13490   4.29040
 Alpha virt. eigenvalues --    4.70121   4.92077   5.09297   5.73447  14.75482
 Alpha virt. eigenvalues --   23.90813  24.04785  24.22360  35.52996  35.62573
 Alpha virt. eigenvalues --   35.77856
          Condensed to atoms (all electrons):
               1          2          3          4          5          6
     1  C    6.340802   0.389973  -0.204210   0.006232   0.048653  -0.103950
     2  H    0.389973   0.447590   0.000089  -0.092507   0.039526  -0.004600
     3  C   -0.204210   0.000089   6.044290  -0.191276   0.079381   0.268049
     4  N    0.006232  -0.092507  -0.191276   7.119562  -0.179849   0.091983
     5  N    0.048653   0.039526   0.079381  -0.179849   6.837202   0.286860
     6  N   -0.103950  -0.004600   0.268049   0.091983   0.286860   6.599465
     7  B   -0.034791  -0.028347   0.262778   0.035574  -0.024077  -0.053557
     8  C   -0.099745   0.001084  -0.008928   0.107502  -0.002054   0.018625
     9  H    0.014139   0.000381  -0.009847  -0.096879   0.068819  -0.000662
    10  H   -0.008735  -0.009190   0.008338  -0.013674  -0.027822   0.001916
    11  H   -0.009021  -0.009157   0.008388  -0.013603  -0.027565   0.001812
    12  H    0.057765  -0.000829  -0.161218  -0.004942   0.001839   0.010856
    13  H   -0.055844  -0.002149   0.002923  -0.001798   0.008626  -0.007320
               7          8          9         10         11         12
     1  C   -0.034791  -0.099745   0.014139  -0.008735  -0.009021   0.057765
     2  H   -0.028347   0.001084   0.000381  -0.009190  -0.009157  -0.000829
     3  C    0.262778  -0.008928  -0.009847   0.008338   0.008388  -0.161218
     4  N    0.035574   0.107502  -0.096879  -0.013674  -0.013603  -0.004942
     5  N   -0.024077  -0.002054   0.068819  -0.027822  -0.027565   0.001839
     6  N   -0.053557   0.018625  -0.000662   0.001916   0.001812   0.010856
     7  B    3.914173   0.003974  -0.000672   0.000878   0.000878   0.478624
     8  C    0.003974   5.186122   0.401731   0.396303   0.396257   0.000051
     9  H   -0.000672   0.401731   0.458626  -0.020376  -0.020350   0.000000
    10  H    0.000878   0.396303  -0.020376   0.521524  -0.050667  -0.000163
    11  H    0.000878   0.396257  -0.020350  -0.050667   0.521425  -0.000169
    12  H    0.478624   0.000051   0.000000  -0.000163  -0.000169   0.614655
    13  H    0.466746  -0.000032  -0.000134   0.000087   0.000089  -0.003046
              13
     1  C   -0.055844
     2  H   -0.002149
     3  C    0.002923
     4  N   -0.001798
     5  N    0.008626
     6  N   -0.007320
     7  B    0.466746
     8  C   -0.000032
     9  H   -0.000134
    10  H    0.000087
    11  H    0.000089
    12  H   -0.003046
    13  H    0.626617
 Mulliken charges:
               1
     1  C   -0.341267
     2  H    0.268134
     3  C   -0.098757
     4  N    0.233675
     5  N   -0.109538
     6  N   -0.109476
     7  B   -0.022180
     8  C   -0.400891
     9  H    0.205224
    10  H    0.201583
    11  H    0.201682
    12  H    0.006577
    13  H   -0.034766
 Sum of Mulliken charges =  -0.00000
 Mulliken charges with hydrogens summed into heavy atoms:
               1
     1  C   -0.073133
     3  C   -0.098757
     4  N    0.233675
     5  N   -0.109538
     6  N   -0.109476
     7  B   -0.050369
     8  C    0.207598
 Electronic spatial extent (au):  <R**2>=           2174.1603
 Charge=             -0.0000 electrons
 Dipole moment (field-independent basis, Debye):
    X=             -1.5307    Y=              5.0721    Z=              3.0035  Tot=              6.0902
 Quadrupole moment (field-independent basis, Debye-Ang):
   XX=            -48.8816   YY=            -26.0818   ZZ=            -44.0259
   XY=              9.2144   XZ=              6.4613   YZ=              4.0515
 Traceless Quadrupole moment (field-independent basis, Debye-Ang):
   XX=             -9.2185   YY=             13.5813   ZZ=             -4.3628
   XY=              9.2144   XZ=              6.4613   YZ=              4.0515
 Octapole moment (field-independent basis, Debye-Ang**2):
  XXX=           -354.1472  YYY=            -94.7143  ZZZ=            -38.0805  XYY=            -86.9550
  XXY=            -29.1192  XXZ=             -2.1862  XZZ=           -117.2037  YZZ=            -45.8219
  YYZ=             -7.4562  XYZ=             11.2546
 Hexadecapole moment (field-independent basis, Debye-Ang**3):
 XXXX=          -2042.5508 YYYY=           -703.6270 ZZZZ=           -310.8679 XXXY=           -194.6888
 XXXZ=           -169.1248 YYYX=           -161.3323 YYYZ=             21.0934 ZZZX=           -178.2240
 ZZZY=             28.0346 XXYY=           -444.1000 XXZZ=           -409.1904 YYZZ=           -186.9871
 XXYZ=             36.4302 YYXZ=            -42.9759 ZZXY=            -69.7246
 N-N= 2.754477057950D+02 E-N=-1.264976619420D+03  KE= 3.057801707789D+02
 Breneman (CHELPG) radii used.
 Generate Potential Derived Charges using the Breneman model, NDens= 1.
 Grid spacing= 0.300 Box extension= 2.800
 NStep X,Y,Z=   33     40     33   Total possible points=       43560
 Number of Points to Fit=   10272

 **********************************************************************

            Electrostatic Properties Using The SCF Density.

 **********************************************************************

       Atomic Center    1 is at   2.659078  1.660730  1.146977
       Atomic Center    2 is at   2.717634  2.187850  2.085569
       Atomic Center    3 is at   3.148066  0.424181  0.752243
       Atomic Center    4 is at   2.034419  2.160382  0.077676
       Atomic Center    5 is at   2.113986  1.291993 -0.959894
       Atomic Center    6 is at   2.772019  0.265049 -0.566341
       Atomic Center    7 is at   3.943149 -0.601051  1.553385
       Atomic Center    8 is at   1.338083  3.424230 -0.077821
       Atomic Center    9 is at   0.962088  3.464381 -1.097791
       Atomic Center   10 is at   0.504687  3.480180  0.622442
       Atomic Center   11 is at   2.025110  4.253047  0.092504
       Atomic Center   12 is at   4.218560 -0.365788  2.692593
       Atomic Center   13 is at   4.284468 -1.624729  1.047110
   10272 points will be used for fitting atomic charges
 Fitting point charges to electrostatic potential
 Charges from ESP fit, RMS=   0.00452 RRMS=   0.17322:
 ESP charges:
               1
     1  C   -0.370997
     2  H    0.185746
     3  C    0.195415
     4  N    0.579650
     5  N   -0.325899
     6  N   -0.348324
     7  B    0.359963
     8  C   -0.290246
     9  H    0.101105
    10  H    0.122419
    11  H    0.122033
    12  H   -0.165025
    13  H   -0.165840
 Sum of ESP charges =  -0.00000
 ESP charges with hydrogens summed into heavy atoms:
               1
     1  C   -0.185251
     3  C    0.195415
     4  N    0.579650
     5  N   -0.325899
     6  N   -0.348324
     7  B    0.029098
     8  C    0.055311
 Charge=  -0.00000 Dipole=    -1.4952     4.9326     2.9022 Tot=     5.9152
 -----------------------------------------------------------------

              Electrostatic Properties (Atomic Units)

 -----------------------------------------------------------------
    Center     Electric         -------- Electric Field --------
               Potential          X             Y             Z
 -----------------------------------------------------------------
    1 Atom    -14.709133
    2 Atom     -1.033528
    3 Atom    -14.767573
    4 Atom    -18.282976
    5 Atom    -18.349620
    6 Atom    -18.387677
    7 Atom    -11.464441
    8 Atom    -14.700299
    9 Atom     -1.066694
   10 Atom     -1.061967
   11 Atom     -1.061954
   12 Atom     -1.155253
   13 Atom     -1.165809
 -----------------------------------------------------------------
 Unable to Open any file for archive entry.
 1\1\GINC-IRENE5695\SP\RwB97XD\GenECP\C3H6B1N3\PENASFRA\09-Apr-2024\0\\
 # wb97xd/genecp scrf=(solvent=toluene,pcm) nosymm pop=(chelpg) scfcyc=
 300\\h_metriazole_chelpg\\0,1\C,0,2.659078,1.66073,1.146977\H,0,2.7176
 34,2.18785,2.085569\C,0,3.148066,0.424181,0.752243\N,0,2.034419,2.1603
 82,0.077676\N,0,2.113986,1.291993,-0.959894\N,0,2.772019,0.265049,-0.5
 66341\B,0,3.943149,-0.601051,1.553385\C,0,1.338083,3.42423,-0.077821\H
 ,0,0.962088,3.464381,-1.097791\H,0,0.504687,3.48018,0.622442\H,0,2.025
 11,4.253047,0.092504\H,0,4.21856,-0.365788,2.692593\H,0,4.284468,-1.62
 4729,1.04711\\Version=AS64L-G16RevC.02\HF=-306.9599926\RMSD=5.179e-09\
 Dipole=-0.6022154,1.9955182,1.1816599\Quadrupole=-6.8537222,10.097363,
 -3.2436408,6.8506855,4.8038006,3.0122093\PG=C01 [X(C3H6B1N3)]\\@
 The archive entry for this job was punched.


 THE UNDERLYING PHYSICAL LAWS NECESSARY FOR THE 
 MATHEMATICAL THEORY OF A LARGE PART OF PHYSICS AND THE
 WHOLE OF CHEMISTRY ARE THUS COMPLETELY KNOWN, AND THE
 DIFFICULTY IS ONLY THAT THE EXACT APPLICATION OF THESE
 LAWS LEADS TO EQUATIONS MUCH TOO COMPLICATED 
 TO BE SOLUBLE.

                                        -- P. A. M. DIRAC, 1929
 Job cpu time:       0 days  0 hours 18 minutes 31.8 seconds.
 Elapsed time:       0 days  0 hours  0 minutes 12.1 seconds.
 File lengths (MBytes):  RWF=     49 Int=      0 D2E=      0 Chk=      4 Scr=      1
 Normal termination of Gaussian 16 at Tue Apr  9 15:48:55 2024.
