 Entering Gaussian System, Link 0=/ccc/products/gaussian-16-C.02/system/default/g16/g16
 Input=h_naphtoxanthene_chelpg.gjf
 Output=h_naphtoxanthene_chelpg.log
 Initial command:
 /ccc/products/gaussian-16-C.02/system/default/g16/l1.exe "/ccc/scratch/cont003/gen7343/penasfra/flp/b-n_flp/h_naphtoxanthene/reac/Gau-404728.inp" -scrdir="/ccc/scratch/cont003/gen7343/penasfra/flp/b-n_flp/h_naphtoxanthene/reac/"
 Entering Link 1 = /ccc/products/gaussian-16-C.02/system/default/g16/l1.exe PID=    404777.
  
 Copyright (c) 1988-2021, Gaussian, Inc.  All Rights Reserved.
  
 This is part of the Gaussian(R) 16 program.  It is based on
 the Gaussian(R) 09 system (copyright 2009, Gaussian, Inc.),
 the Gaussian(R) 03 system (copyright 2003, Gaussian, Inc.),
 the Gaussian(R) 98 system (copyright 1998, Gaussian, Inc.),
 the Gaussian(R) 94 system (copyright 1995, Gaussian, Inc.),
 the Gaussian 92(TM) system (copyright 1992, Gaussian, Inc.),
 the Gaussian 90(TM) system (copyright 1990, Gaussian, Inc.),
 the Gaussian 88(TM) system (copyright 1988, Gaussian, Inc.),
 the Gaussian 86(TM) system (copyright 1986, Carnegie Mellon
 University), and the Gaussian 82(TM) system (copyright 1983,
 Carnegie Mellon University). Gaussian is a federally registered
 trademark of Gaussian, Inc.
  
 This software contains proprietary and confidential information,
 including trade secrets, belonging to Gaussian, Inc.
  
 This software is provided under written license and may be
 used, copied, transmitted, or stored only in accord with that
 written license.
  
 The following legend is applicable only to US Government
 contracts under FAR:
  
                    RESTRICTED RIGHTS LEGEND
  
 Use, reproduction and disclosure by the US Government is
 subject to restrictions as set forth in subparagraphs (a)
 and (c) of the Commercial Computer Software - Restricted
 Rights clause in FAR 52.227-19.
  
 Gaussian, Inc.
 340 Quinnipiac St., Bldg. 40, Wallingford CT 06492
  
  
 ---------------------------------------------------------------
 Warning -- This program may not be used in any manner that
 competes with the business of Gaussian, Inc. or will provide
 assistance to any competitor of Gaussian, Inc.  The licensee
 of this program is prohibited from giving any competitor of
 Gaussian, Inc. access to this program.  By using this program,
 the user acknowledges that Gaussian, Inc. is engaged in the
 business of creating and licensing software in the field of
 computational chemistry and represents and warrants to the
 licensee that it is not a competitor of Gaussian, Inc. and that
 it will not use this program in any manner prohibited above.
 ---------------------------------------------------------------
  

 Cite this work as:
 Gaussian 16, Revision C.02,
 M. J. Frisch, G. W. Trucks, H. B. Schlegel, G. E. Scuseria, 
 M. A. Robb, J. R. Cheeseman, G. Scalmani, V. Barone, 
 G. A. Petersson, H. Nakatsuji, X. Li, M. Caricato, A. V. Marenich, 
 J. Bloino, B. G. Janesko, R. Gomperts, B. Mennucci, H. P. Hratchian, 
 J. V. Ortiz, A. F. Izmaylov, J. L. Sonnenberg, D. Williams-Young, 
 F. Ding, F. Lipparini, F. Egidi, J. Goings, B. Peng, A. Petrone, 
 T. Henderson, D. Ranasinghe, V. G. Zakrzewski, J. Gao, N. Rega, 
 G. Zheng, W. Liang, M. Hada, M. Ehara, K. Toyota, R. Fukuda, 
 J. Hasegawa, M. Ishida, T. Nakajima, Y. Honda, O. Kitao, H. Nakai, 
 T. Vreven, K. Throssell, J. A. Montgomery, Jr., J. E. Peralta, 
 F. Ogliaro, M. J. Bearpark, J. J. Heyd, E. N. Brothers, K. N. Kudin, 
 V. N. Staroverov, T. A. Keith, R. Kobayashi, J. Normand, 
 K. Raghavachari, A. P. Rendell, J. C. Burant, S. S. Iyengar, 
 J. Tomasi, M. Cossi, J. M. Millam, M. Klene, C. Adamo, R. Cammi, 
 J. W. Ochterski, R. L. Martin, K. Morokuma, O. Farkas, 
 J. B. Foresman, and D. J. Fox, Gaussian, Inc., Wallingford CT, 2019.
 
 ******************************************
 Gaussian 16:  AS64L-G16RevC.02  7-Dec-2021
                10-Apr-2024 
 ******************************************
 %nprocshared=128
 Will use up to  128 processors via shared memory.
 %mem=30GB
 %chk=h_naphtoxanthene_chelpg.chk
 ----------------------------------------------------------------------
 # wb97xd/genecp scrf=(solvent=toluene,pcm) nosymm pop=(chelpg) scfcyc=
 300
 ----------------------------------------------------------------------
 1/38=1,172=1/1;
 2/12=2,15=1,17=6,18=5,40=1/2;
 3/5=7,11=2,16=1,17=8,25=1,30=1,70=2201,72=13,74=-58/1,2,3;
 4//1;
 5/5=2,7=300,38=5,53=13/2;
 6/7=2,8=2,9=2,10=2,15=8,20=3,28=1/1,2;
 99/5=1,9=1/99;
 -----------------------
 h_naphtoxanthene_chelpg
 -----------------------
 Symbolic Z-matrix:
 Charge =  0 Multiplicity = 1
 C                    -2.13664   1.63466   1.20849 
 C                    -0.90073   1.82655   1.89406 
 C                    -0.10034   2.9195    1.70353 
 C                    -0.49159   3.92613   0.78777 
 C                    -1.70804   3.77778   0.08979 
 C                    -2.50814   2.63571   0.30829 
 H                    -0.59519   1.0584    2.59689 
 H                     0.83339   3.02684   2.2441 
 C                    -2.13017   4.76888  -0.839 
 O                    -3.67232   2.4861   -0.36785 
 C                    -3.36944   4.57958  -1.51501 
 C                    -4.12604   3.43077  -1.24973 
 C                    -3.81376   5.53158  -2.45682 
 C                    -5.34635   3.19505  -1.87981 
 C                    -5.03165   5.28736  -3.11038 
 C                    -5.76904   4.16004  -2.8203 
 H                    -5.39977   5.99858  -3.84168 
 H                    -6.71197   4.01121  -3.33072 
 B                    -2.9828    0.38559   1.47357 
 N                    -6.0781    2.02721  -1.60503 
 C                    -6.53487   1.8693   -0.22797 
 H                    -7.36644   2.55363   0.00394 
 H                    -6.88032   0.84318  -0.08379 
 H                    -5.72036   2.04945   0.46964 
 C                    -7.10184   1.65879  -2.56311 
 H                    -7.4204    0.63594  -2.35146 
 H                    -7.99468   2.30465  -2.51906 
 H                    -6.69911   1.68411  -3.57718 
 C                    -2.99433   6.68391  -2.69139 
 H                    -3.33441   7.42001  -3.4122 
 C                    -1.8191    6.86209  -2.03341 
 H                    -1.21435   7.74254  -2.22358 
 C                    -1.35132   5.89844  -1.08213 
 C                    -0.12478   6.03458  -0.36863 
 C                     0.28741   5.09309   0.52743 
 H                     0.48788   6.9118   -0.55061 
 H                     1.22472   5.21904   1.05835 
 H                    -4.02371   0.195     0.92319 
 H                    -2.57941  -0.41911   2.26387 
 
                          Input orientation:                          
 ---------------------------------------------------------------------
 Center     Atomic      Atomic             Coordinates (Angstroms)
 Number     Number       Type             X           Y           Z
 ---------------------------------------------------------------------
      1          6           0       -2.136640    1.634661    1.208493
      2          6           0       -0.900726    1.826549    1.894061
      3          6           0       -0.100344    2.919502    1.703532
      4          6           0       -0.491593    3.926134    0.787765
      5          6           0       -1.708042    3.777779    0.089792
      6          6           0       -2.508140    2.635712    0.308294
      7          1           0       -0.595194    1.058396    2.596892
      8          1           0        0.833390    3.026836    2.244100
      9          6           0       -2.130172    4.768878   -0.838999
     10          8           0       -3.672318    2.486100   -0.367852
     11          6           0       -3.369438    4.579582   -1.515013
     12          6           0       -4.126044    3.430774   -1.249729
     13          6           0       -3.813759    5.531581   -2.456819
     14          6           0       -5.346352    3.195046   -1.879808
     15          6           0       -5.031653    5.287362   -3.110381
     16          6           0       -5.769044    4.160042   -2.820295
     17          1           0       -5.399768    5.998579   -3.841675
     18          1           0       -6.711971    4.011212   -3.330715
     19          5           0       -2.982804    0.385591    1.473571
     20          7           0       -6.078095    2.027209   -1.605034
     21          6           0       -6.534871    1.869297   -0.227974
     22          1           0       -7.366435    2.553626    0.003944
     23          1           0       -6.880317    0.843181   -0.083793
     24          1           0       -5.720357    2.049454    0.469639
     25          6           0       -7.101843    1.658790   -2.563109
     26          1           0       -7.420401    0.635936   -2.351456
     27          1           0       -7.994680    2.304651   -2.519061
     28          1           0       -6.699111    1.684114   -3.577178
     29          6           0       -2.994334    6.683907   -2.691394
     30          1           0       -3.334412    7.420007   -3.412199
     31          6           0       -1.819103    6.862092   -2.033406
     32          1           0       -1.214348    7.742542   -2.223577
     33          6           0       -1.351324    5.898442   -1.082134
     34          6           0       -0.124784    6.034580   -0.368631
     35          6           0        0.287407    5.093086    0.527425
     36          1           0        0.487880    6.911797   -0.550605
     37          1           0        1.224722    5.219036    1.058345
     38          1           0       -4.023708    0.194998    0.923188
     39          1           0       -2.579408   -0.419108    2.263865
 ---------------------------------------------------------------------
                    Distance matrix (angstroms):
                    1          2          3          4          5
     1  C    0.000000
     2  C    1.426292   0.000000
     3  C    2.458126   1.368013   0.000000
     4  C    2.852024   2.408223   1.415985   0.000000
     5  C    2.455228   2.777489   2.434233   1.410292   0.000000
     6  C    1.396594   2.398579   2.797268   2.441627   1.411459
     7  H    2.153088   1.085072   2.122895   3.392285   3.862515
     8  H    3.439725   2.137843   1.084248   2.164539   3.415236
     9  C    3.743739   4.199816   3.742306   2.457950   1.422366
    10  O    2.359686   3.637716   4.151803   3.677793   2.395048
    11  C    4.196407   5.029465   4.878716   3.743230   2.445102
    12  C    3.636840   4.781175   5.018905   4.195950   2.785940
    13  C    5.606534   6.414295   6.157997   4.913407   3.741002
    14  C    4.719603   5.989863   6.358998   5.587407   4.178062
    15  C    6.354211   7.354334   7.286860   6.136826   4.854517
    16  C    5.983564   7.167347   7.357860   6.397210   5.010636
    17  H    7.429400   8.399160   8.265224   7.058111   5.832429
    18  H    6.869211   8.114284   8.381473   7.460712   6.065778
    19  B    1.531808   2.566753   3.844758   4.383139   3.879021
    20  N    4.858508   6.252126   6.890305   6.367135   5.003428
    21  C    4.632810   6.020669   6.799764   6.464017   5.200150
    22  H    5.444832   6.775439   7.471181   7.054191   5.789934
    23  H    4.979851   6.374514   7.312570   7.147028   5.949321
    24  H    3.682524   5.030657   5.819280   5.564450   4.385210
    25  C    6.235287   7.638610   8.295457   7.750136   6.373467
    26  H    6.448939   7.870714   8.674148   8.287852   6.961459
    27  H    6.975685   8.368298   8.973788   8.358267   6.964053
    28  H    6.612203   7.973457   8.541417   7.912816   6.537650
    29  C    6.437363   7.000251   6.470031   5.096427   4.223165
    30  H    7.500379   8.084924   7.542178   6.158609   5.307998
    31  C    6.159284   6.451752   5.697618   4.282655   3.746103
    32  H    7.066536   7.214726   6.318616   4.914827   4.616791
    33  C    4.903419   5.063703   4.266025   2.850554   2.449055
    34  C    5.088632   4.840391   3.741413   2.432559   2.794639
    35  C    4.277915   3.734919   2.501609   1.427023   2.429686
    36  H    6.150666   5.810711   4.622290   3.415375   3.879981
    37  H    4.916202   4.089611   2.731286   2.165767   3.408287
    38  H    2.390618   3.654801   4.839901   5.139606   4.346628
    39  H    2.351132   2.828021   4.195956   5.041723   4.806218
                    6          7          8          9         10
     6  C    0.000000
     7  H    3.374162   0.000000
     8  H    3.881513   2.457655   0.000000
     9  C    2.451436   5.284807   4.617674   0.000000
    10  O    1.354573   4.505190   5.236038   2.794865   0.000000
    11  C    2.800877   6.083004   5.848565   1.424292   2.406321
    12  C    2.382682   5.735117   6.079966   2.437771   1.369665
    13  C    4.211478   7.477201   7.068832   2.456323   3.695774
    14  C    3.627133   6.868742   7.431293   3.728813   2.364531
    15  C    5.008663   8.374920   8.257068   3.721101   4.149256
    16  C    4.769187   8.107703   8.397880   4.187792   3.634944
    17  H    6.073930   9.431038   9.204356   4.606353   5.233454
    18  H    5.727703   9.015021   9.432923   5.270255   4.510434
    19  B    2.578027   2.723086   4.704596   5.028734   2.877222
    20  N    4.095812   6.975456   7.973940   4.867202   2.743896
    21  C    4.133949   6.627005   7.857628   5.308700   2.931590
    22  H    4.868511   7.403296   8.513481   5.747725   3.713394
    23  H    4.741606   6.836312   8.347976   6.208487   3.615402
    24  H    3.269261   5.636905   6.859708   4.690120   2.255330
    25  C    5.504674   8.326017   9.378098   6.112505   4.155146
    26  H    5.933269   8.440857   9.744773   6.881516   4.626653
    27  H    6.181073   9.081769  10.057041   6.579322   4.831505
    28  H    5.793675   8.704508   9.613987   6.155371   4.483796
    29  C    5.061857   8.085061   7.237730   2.800978   4.845626
    30  H    6.116721   9.169656   8.286389   3.885877   5.807380
    31  C    4.880637   7.524659   6.327872   2.430003   5.035651
    32  H    5.844996   8.264265   6.811112   3.405652   6.092250
    33  C    3.730539   6.126419   4.907436   1.393425   4.188232
    34  C    4.206057   5.811886   4.097680   2.417608   5.017640
    35  C    3.728510   4.619567   2.741251   2.795874   4.824657
    36  H    5.291384   6.733654   4.798195   3.395507   6.076795
    37  H    4.601130   4.794804   2.522875   3.880447   5.786534
    38  H    2.938048   3.911707   5.775423   5.254632   2.653188
    39  H    3.627845   2.496203   4.849960   6.061747   4.069474
                   11         12         13         14         15
    11  C    0.000000
    12  C    1.400924   0.000000
    13  C    1.410929   2.442945   0.000000
    14  C    2.440943   1.393456   2.853275   0.000000
    15  C    2.410210   2.780121   1.403585   2.447679   0.000000
    16  C    2.763672   2.387040   2.415859   1.412233   1.377950
    17  H    3.398404   3.864477   2.156696   3.422218   1.084495
    18  H    3.846082   3.369633   3.387455   2.153177   2.121456
    19  B    5.164366   4.242228   6.528374   4.972378   7.016962
    20  N    3.722840   2.430378   4.258330   1.405273   3.740282
    21  C    4.361431   3.047071   5.077846   2.428733   4.717107
    22  H    4.731566   3.583465   5.248340   2.835609   4.756421
    23  H    5.323096   3.954879   6.084088   3.333165   5.685819
    24  H    3.983367   2.721416   4.931985   2.640485   4.875952
    25  C    4.853903   3.704089   5.081467   2.430788   4.213280
    26  H    5.715092   4.458443   6.081637   3.327638   5.283734
    27  H    5.251313   4.224417   5.281766   2.866198   4.245675
    28  H    4.870624   3.884394   4.937961   2.644605   3.997713
    29  C    2.439828   3.733904   1.433296   4.285185   2.505306
    30  H    3.415927   4.606185   2.169949   4.924065   2.742243
    31  C    2.807512   4.208333   2.434788   5.090413   3.736325
    32  H    3.892402   5.293175   3.420481   6.153971   4.624516
    33  C    2.449400   3.717061   2.843929   4.889262   4.246413
    34  C    3.736173   4.854505   4.268732   6.132812   5.670352
    35  C    4.219924   5.039852   5.090928   6.413779   6.446997
    36  H    4.609578   5.821906   4.903340   7.044096   6.297340
    37  H    5.304468   6.095554   6.151451   7.477185   7.518322
    38  H    5.059394   3.899011   6.320415   4.313521   6.574025
    39  H    6.315930   5.436820   7.695400   6.155332   8.213393
                   16         17         18         19         20
    16  C    0.000000
    17  H    2.135369   0.000000
    18  H    1.082493   2.435690   0.000000
    19  B    6.359788   8.099333   7.080465   0.000000
    20  N    2.474136   4.608087   2.704818   4.664070   0.000000
    21  C    3.543181   5.603415   3.774409   4.208779   1.459409
    22  H    3.620574   5.524877   3.697679   5.106506   2.127380
    23  H    4.441277   6.549186   4.539522   4.222011   2.087979
    24  H    3.909043   5.855407   4.390271   3.357159   2.105407
    25  C    2.845832   4.833793   2.505017   5.906124   1.449724
    26  H    3.919963   5.921288   3.585151   5.863938   2.072335
    27  H    2.913190   4.704039   2.283960   6.689006   2.141429
    28  H    2.751021   4.513630   2.340148   6.403684   2.095883
    29  C    3.753069   2.752986   4.623078   7.550884   5.689868
    30  H    4.111588   2.543738   4.799420   8.571895   6.314738
    31  C    4.849980   4.103249   5.809534   7.456417   6.457446
    32  H    5.825430   4.814290   6.735907   8.421465   7.530183
    33  C    5.055639   4.900509   6.111816   6.291652   6.132066
    34  C    6.432901   6.315757   7.500599   6.593411   7.282144
    35  C    6.982721   7.228618   8.065171   5.809473   7.380149
    36  H    7.202274   6.806578   8.245014   7.663831   8.251245
    37  H    8.067099   8.276578   9.149524   6.421673   8.403123
    38  H    5.725508   7.634069   6.315531   1.192782   3.737567
    39  H    7.549243   9.296169   8.246523   1.197845   5.761394
                   21         22         23         24         25
    21  C    0.000000
    22  H    1.101631   0.000000
    23  H    1.092261   1.780346   0.000000
    24  H    1.087453   1.783433   1.762637   0.000000
    25  C    2.412183   2.731392   2.619408   3.355396   0.000000
    26  H    2.610463   3.037821   2.340286   3.584238   1.092019
    27  H    2.751301   2.611941   3.050939   3.764306   1.102830
    28  H    3.358338   3.745104   3.597741   4.179493   1.091407
    29  C    6.464078   6.590852   7.484285   6.237106   6.491524
    30  H    7.154901   7.183934   8.179631   7.043028   6.935857
    31  C    7.101131   7.313451   8.102109   6.681804   7.433860
    32  H    8.172234   8.350741   9.180581   7.743951   8.472893
    33  C    6.620631   6.967705   7.557917   6.025874   7.296328
    34  C    7.645821   8.043467   8.524610   6.920575   8.523064
    35  C    7.583332   8.081101   8.355330   6.735003   8.714746
    36  H    8.651585   8.999525   9.557005   7.951445   9.447124
    37  H    8.549073   9.056719   9.281392   7.656824   9.753049
    38  H    3.230231   4.193085   3.097478   2.554081   4.875640
    39  H    5.204973   6.071245   5.059910   4.379339   6.933236
                   26         27         28         29         30
    26  H    0.000000
    27  H    1.772709   0.000000
    28  H    1.766729   1.784146   0.000000
    29  C    7.502238   6.649138   6.285532   0.000000
    30  H    7.990250   6.977296   6.651984   1.084922   0.000000
    31  C    8.380973   7.690506   7.280739   1.358627   2.123323
    32  H    9.435852   8.696601   8.283683   2.123184   2.451841
    33  C    8.132579   7.688581   7.251526   2.430258   3.417163
    34  C    9.289940   8.970618   8.511351   3.748489   4.635130
    35  C    9.357588   9.254697   8.790921   4.864291   5.835475
    36  H   10.255262   9.851621   9.388379   4.093987   4.801762
    37  H   10.361935  10.309648   9.837219   5.831537   6.753943
    38  H    4.738696   5.662891   5.443211   7.498717   8.454080
    39  H    6.771227   7.721426   7.450723   8.670616   9.707701
                   31         32         33         34         35
    31  C    0.000000
    32  H    1.084936   0.000000
    33  C    1.432605   2.173099   0.000000
    34  C    2.515347   2.746836   1.425490   0.000000
    35  C    3.758274   4.104010   2.434074   1.363535   0.000000
    36  H    2.742871   2.527163   2.166122   1.085349   2.123687
    37  H    4.639335   4.805014   3.417493   2.126626   1.084573
    38  H    7.619178   8.646390   6.610010   7.139406   6.537095
    39  H    8.488844   9.413451   7.253643   7.389540   6.451212
                   36         37         38         39
    36  H    0.000000
    37  H    2.448897   0.000000
    38  H    8.224468   7.266722   0.000000
    39  H    8.430401   6.907485   2.064108   0.000000
 Symmetry turned off by external request.
 Stoichiometry    C20H16BNO
 Framework group  C1[X(C20H16BNO)]
 Deg. of freedom   111
 Full point group                 C1      NOp   1
 Rotational constants (GHZ):           0.3909344           0.2719132           0.1629959
 General basis read from cards:  (5D, 7F)
 ======================================================================================================
                                       Pseudopotential Parameters
 ======================================================================================================
  Center     Atomic      Valence      Angular      Power
  Number     Number     Electrons     Momentum     of R      Exponent        Coefficient   SO-Coeffient
 ======================================================================================================
    1          6
                                   No pseudopotential on this center.
    2          6
                                   No pseudopotential on this center.
    3          6
                                   No pseudopotential on this center.
    4          6
                                   No pseudopotential on this center.
    5          6
                                   No pseudopotential on this center.
    6          6
                                   No pseudopotential on this center.
    7          1
                                   No pseudopotential on this center.
    8          1
                                   No pseudopotential on this center.
    9          6
                                   No pseudopotential on this center.
   10          8
                                   No pseudopotential on this center.
   11          6
                                   No pseudopotential on this center.
   12          6
                                   No pseudopotential on this center.
   13          6
                                   No pseudopotential on this center.
   14          6
                                   No pseudopotential on this center.
   15          6
                                   No pseudopotential on this center.
   16          6
                                   No pseudopotential on this center.
   17          1
                                   No pseudopotential on this center.
   18          1
                                   No pseudopotential on this center.
   19          5
                                   No pseudopotential on this center.
   20          7
                                   No pseudopotential on this center.
   21          6
                                   No pseudopotential on this center.
   22          1
                                   No pseudopotential on this center.
   23          1
                                   No pseudopotential on this center.
   24          1
                                   No pseudopotential on this center.
   25          6
                                   No pseudopotential on this center.
   26          1
                                   No pseudopotential on this center.
   27          1
                                   No pseudopotential on this center.
   28          1
                                   No pseudopotential on this center.
   29          6
                                   No pseudopotential on this center.
   30          1
                                   No pseudopotential on this center.
   31          6
                                   No pseudopotential on this center.
   32          1
                                   No pseudopotential on this center.
   33          6
                                   No pseudopotential on this center.
   34          6
                                   No pseudopotential on this center.
   35          6
                                   No pseudopotential on this center.
   36          1
                                   No pseudopotential on this center.
   37          1
                                   No pseudopotential on this center.
   38          1
                                   No pseudopotential on this center.
   39          1
                                   No pseudopotential on this center.
 ======================================================================================================
   618 basis functions,   972 primitive gaussians,   641 cartesian basis functions
    78 alpha electrons       78 beta electrons
       nuclear repulsion energy      1808.4092019215 Hartrees.
 NAtoms=   39 NActive=   39 NUniq=   39 SFac= 1.00D+00 NAtFMM=   60 NAOKFM=F Big=F
 Integral buffers will be    131072 words long.
 Raffenetti 2 integral format.
 Two-electron integral symmetry is turned off.
 Nuclear repulsion after empirical dispersion term =     1808.3781759509 Hartrees.
 ------------------------------------------------------------------------------
 Polarizable Continuum Model (PCM)
 =================================
 Model                : PCM.
 Atomic radii         : UFF (Universal Force Field).
 Polarization charges : Total charges.
 Charge compensation  : None.
 Solution method      : On-the-fly selection.
 Cavity type          : Scaled VdW (van der Waals Surface) (Alpha=1.100).
 Cavity algorithm     : GePol (No added spheres)
                        Default sphere list used, NSphG=   39.
                        Lebedev-Laikov grids with approx.  5.0 points / Ang**2.
                        Smoothing algorithm: York/Karplus (Gamma=1.0000).
                        Polarization charges: spherical gaussians, with
                                              point-specific exponents (IZeta= 3).
                        Self-potential: point-specific (ISelfS= 7).
                        Self-field    : sphere-specific E.n sum rule (ISelfD= 2).
 Solvent              : Toluene, Eps=   2.374100 Eps(inf)=   2.238315
 ------------------------------------------------------------------------------
 One-electron integrals computed using PRISM.
   1 Symmetry operations used in ECPInt.
 ECPInt:  NShTT=   23871 NPrTT=   85128 LenC2=   21311 LenP2D=   51469.
 LDataN:  DoStor=T MaxTD1= 4 Len=   56
 Number of processors reduced to  77 by ecpmxn.
 NBasis=   618 RedAO= T EigKep=  1.15D-06  NBF=   618
 NBsUse=   605 1.00D-06 EigRej=  9.69D-07 NBFU=   605
 ExpMin= 3.15D-02 ExpMax= 8.59D+03 ExpMxC= 1.30D+03 IAcc=3 IRadAn=         5 AccDes= 0.00D+00
 Harris functional with IExCor= 4639 and IRadAn=       5 diagonalized for initial guess.
 HarFok:  IExCor= 4639 AccDes= 0.00D+00 IRadAn=         5 IDoV= 1 UseB2=F ITyADJ=14
 ICtDFT=  3500011 ScaDFX=  1.000000  1.000000  1.000000  1.000000
 FoFCou: FMM=F IPFlag=           0 FMFlag=      100000 FMFlg1=           0
         NFxFlg=           0 DoJE=T BraDBF=F KetDBF=T FulRan=T
         wScrn=  0.000000 ICntrl=       500 IOpCl=  0 I1Cent=   200000004 NGrid=           0
         NMat0=    1 NMatS0=      1 NMatT0=    0 NMatD0=    1 NMtDS0=    0 NMtDT0=    0
 Symmetry not used in FoFCou.
 Requested convergence on RMS density matrix=1.00D-08 within 300 cycles.
 Requested convergence on MAX density matrix=1.00D-06.
 Requested convergence on             energy=1.00D-06.
 No special actions if energy rises.
 Inv3:  Mode=1 IEnd=    22572147.
 Iteration    1 A*A^-1 deviation from unit magnitude is 5.00D-15 for   2741.
 Iteration    1 A*A^-1 deviation from orthogonality  is 2.62D-15 for   1457    578.
 Iteration    1 A^-1*A deviation from unit magnitude is 5.00D-15 for   2741.
 Iteration    1 A^-1*A deviation from orthogonality  is 1.36D-14 for   1800   1779.
 Error on total polarization charges =  0.01242
 SCF Done:  E(RwB97XD) =  -926.514094292     A.U. after   17 cycles
            NFock= 17  Conv=0.80D-08     -V/T= 2.0042

 **********************************************************************

            Population analysis using the SCF Density.

 **********************************************************************

 Alpha  occ. eigenvalues --  -19.31728 -14.44517 -10.37874 -10.36289 -10.33354
 Alpha  occ. eigenvalues --  -10.31747 -10.31562 -10.31350 -10.31266 -10.30786
 Alpha  occ. eigenvalues --  -10.30711 -10.30683 -10.30553 -10.30136 -10.29984
 Alpha  occ. eigenvalues --  -10.29979 -10.29882 -10.29809 -10.29737 -10.29420
 Alpha  occ. eigenvalues --  -10.28951 -10.27571  -6.84170  -1.22119  -1.05081
 Alpha  occ. eigenvalues --   -1.00876  -0.98360  -0.94197  -0.92002  -0.90029
 Alpha  occ. eigenvalues --   -0.87836  -0.86243  -0.83722  -0.81709  -0.80930
 Alpha  occ. eigenvalues --   -0.76532  -0.76138  -0.74110  -0.73582  -0.70149
 Alpha  occ. eigenvalues --   -0.66895  -0.66411  -0.64845  -0.62086  -0.61721
 Alpha  occ. eigenvalues --   -0.59755  -0.58195  -0.57801  -0.57129  -0.56061
 Alpha  occ. eigenvalues --   -0.55315  -0.55145  -0.53445  -0.53153  -0.52541
 Alpha  occ. eigenvalues --   -0.51619  -0.50627  -0.49882  -0.48877  -0.48600
 Alpha  occ. eigenvalues --   -0.48309  -0.47689  -0.47088  -0.46134  -0.45817
 Alpha  occ. eigenvalues --   -0.45361  -0.43390  -0.42953  -0.42364  -0.40784
 Alpha  occ. eigenvalues --   -0.40711  -0.39993  -0.38203  -0.35525  -0.34836
 Alpha  occ. eigenvalues --   -0.32204  -0.28939  -0.25868
 Alpha virt. eigenvalues --   -0.01891   0.00828   0.02689   0.03866   0.04189
 Alpha virt. eigenvalues --    0.04467   0.04800   0.05651   0.05799   0.06169
 Alpha virt. eigenvalues --    0.06904   0.07231   0.07361   0.07410   0.08938
 Alpha virt. eigenvalues --    0.09074   0.09295   0.09513   0.09663   0.10575
 Alpha virt. eigenvalues --    0.10783   0.11182   0.11391   0.11461   0.11671
 Alpha virt. eigenvalues --    0.12556   0.13041   0.13404   0.13852   0.14036
 Alpha virt. eigenvalues --    0.14618   0.14997   0.15118   0.15415   0.15657
 Alpha virt. eigenvalues --    0.16000   0.16364   0.16646   0.16775   0.17202
 Alpha virt. eigenvalues --    0.17436   0.17786   0.17995   0.18328   0.18611
 Alpha virt. eigenvalues --    0.18706   0.18952   0.19082   0.19426   0.19696
 Alpha virt. eigenvalues --    0.19853   0.20265   0.20585   0.20670   0.21027
 Alpha virt. eigenvalues --    0.21616   0.21797   0.21996   0.22117   0.22761
 Alpha virt. eigenvalues --    0.22925   0.23121   0.23388   0.23815   0.24148
 Alpha virt. eigenvalues --    0.24610   0.24882   0.25120   0.25290   0.25543
 Alpha virt. eigenvalues --    0.25680   0.25819   0.26225   0.26621   0.27149
 Alpha virt. eigenvalues --    0.27387   0.27748   0.27817   0.28104   0.28519
 Alpha virt. eigenvalues --    0.28848   0.29171   0.29673   0.29893   0.30125
 Alpha virt. eigenvalues --    0.30679   0.31135   0.31534   0.31840   0.32198
 Alpha virt. eigenvalues --    0.32434   0.32501   0.32789   0.33177   0.33366
 Alpha virt. eigenvalues --    0.33635   0.34098   0.34453   0.34694   0.35145
 Alpha virt. eigenvalues --    0.35690   0.35989   0.36097   0.36312   0.36486
 Alpha virt. eigenvalues --    0.36623   0.36806   0.37172   0.37601   0.38149
 Alpha virt. eigenvalues --    0.38270   0.38424   0.38825   0.39189   0.39668
 Alpha virt. eigenvalues --    0.39997   0.40139   0.40449   0.40806   0.41275
 Alpha virt. eigenvalues --    0.41582   0.41959   0.42746   0.43147   0.43819
 Alpha virt. eigenvalues --    0.43823   0.44978   0.45472   0.46136   0.46524
 Alpha virt. eigenvalues --    0.46747   0.47539   0.47751   0.49122   0.49544
 Alpha virt. eigenvalues --    0.50628   0.50983   0.52128   0.53382   0.53636
 Alpha virt. eigenvalues --    0.54113   0.54952   0.57459   0.57868   0.58963
 Alpha virt. eigenvalues --    0.60033   0.60225   0.60410   0.60951   0.61733
 Alpha virt. eigenvalues --    0.61877   0.62743   0.63037   0.63361   0.63547
 Alpha virt. eigenvalues --    0.64483   0.65093   0.65831   0.66328   0.66654
 Alpha virt. eigenvalues --    0.67104   0.67357   0.67493   0.68683   0.69479
 Alpha virt. eigenvalues --    0.69682   0.69862   0.70131   0.70604   0.71012
 Alpha virt. eigenvalues --    0.71361   0.71750   0.71900   0.72565   0.73631
 Alpha virt. eigenvalues --    0.73863   0.73932   0.74468   0.74812   0.75259
 Alpha virt. eigenvalues --    0.75476   0.75788   0.76388   0.76414   0.77914
 Alpha virt. eigenvalues --    0.78289   0.79384   0.79573   0.80594   0.81353
 Alpha virt. eigenvalues --    0.81490   0.82599   0.83366   0.83849   0.84593
 Alpha virt. eigenvalues --    0.84675   0.85274   0.86022   0.86609   0.87307
 Alpha virt. eigenvalues --    0.87701   0.88290   0.88559   0.89482   0.90111
 Alpha virt. eigenvalues --    0.90957   0.91213   0.91390   0.92541   0.92942
 Alpha virt. eigenvalues --    0.94123   0.95028   0.96017   0.97549   0.98136
 Alpha virt. eigenvalues --    0.98539   0.99281   0.99872   1.00432   1.00924
 Alpha virt. eigenvalues --    1.01218   1.02176   1.02489   1.02653   1.03527
 Alpha virt. eigenvalues --    1.03803   1.04031   1.04532   1.04847   1.05355
 Alpha virt. eigenvalues --    1.05671   1.06517   1.06789   1.07617   1.08199
 Alpha virt. eigenvalues --    1.09340   1.09352   1.09953   1.11306   1.11796
 Alpha virt. eigenvalues --    1.12778   1.14018   1.14541   1.15397   1.16481
 Alpha virt. eigenvalues --    1.17414   1.17732   1.18458   1.19446   1.20476
 Alpha virt. eigenvalues --    1.20893   1.22004   1.22220   1.23398   1.23505
 Alpha virt. eigenvalues --    1.24767   1.25251   1.26741   1.27802   1.29379
 Alpha virt. eigenvalues --    1.32581   1.33590   1.33872   1.35231   1.37354
 Alpha virt. eigenvalues --    1.39248   1.41330   1.41884   1.42638   1.44923
 Alpha virt. eigenvalues --    1.46588   1.47343   1.49398   1.50477   1.51587
 Alpha virt. eigenvalues --    1.53315   1.54170   1.54533   1.55348   1.56510
 Alpha virt. eigenvalues --    1.56773   1.57178   1.57383   1.58023   1.58467
 Alpha virt. eigenvalues --    1.58740   1.60525   1.61025   1.61934   1.62530
 Alpha virt. eigenvalues --    1.63515   1.64569   1.65637   1.65869   1.66675
 Alpha virt. eigenvalues --    1.67465   1.67928   1.68441   1.69480   1.69872
 Alpha virt. eigenvalues --    1.70999   1.71743   1.72993   1.73594   1.74733
 Alpha virt. eigenvalues --    1.75718   1.76589   1.76707   1.77736   1.79482
 Alpha virt. eigenvalues --    1.79636   1.80295   1.81070   1.81483   1.81892
 Alpha virt. eigenvalues --    1.82849   1.83198   1.84196   1.84884   1.86316
 Alpha virt. eigenvalues --    1.86501   1.88175   1.89395   1.89504   1.90834
 Alpha virt. eigenvalues --    1.91801   1.92932   1.94414   1.94763   1.95726
 Alpha virt. eigenvalues --    1.96218   1.97966   1.98571   1.99364   1.99666
 Alpha virt. eigenvalues --    2.00195   2.01727   2.02212   2.02563   2.02819
 Alpha virt. eigenvalues --    2.02951   2.04991   2.06921   2.07363   2.07628
 Alpha virt. eigenvalues --    2.08310   2.09436   2.09669   2.10256   2.12351
 Alpha virt. eigenvalues --    2.13657   2.14083   2.14643   2.15764   2.16017
 Alpha virt. eigenvalues --    2.16989   2.17895   2.19150   2.21206   2.22056
 Alpha virt. eigenvalues --    2.22377   2.22766   2.23995   2.25591   2.26887
 Alpha virt. eigenvalues --    2.27096   2.28790   2.29777   2.30791   2.31762
 Alpha virt. eigenvalues --    2.33424   2.36718   2.38247   2.38738   2.40263
 Alpha virt. eigenvalues --    2.40481   2.42615   2.43059   2.46842   2.47773
 Alpha virt. eigenvalues --    2.49633   2.50977   2.52736   2.54165   2.55194
 Alpha virt. eigenvalues --    2.57073   2.58999   2.60718   2.61356   2.62793
 Alpha virt. eigenvalues --    2.63955   2.65944   2.66633   2.67082   2.67593
 Alpha virt. eigenvalues --    2.68637   2.71417   2.71758   2.73335   2.74474
 Alpha virt. eigenvalues --    2.74942   2.75925   2.76427   2.77081   2.78558
 Alpha virt. eigenvalues --    2.79862   2.80728   2.81676   2.82736   2.83390
 Alpha virt. eigenvalues --    2.83501   2.84035   2.85037   2.85942   2.86317
 Alpha virt. eigenvalues --    2.86963   2.87455   2.88269   2.88582   2.88735
 Alpha virt. eigenvalues --    2.90087   2.90311   2.92396   2.93096   2.94190
 Alpha virt. eigenvalues --    2.94280   2.94875   2.95748   2.96495   2.97937
 Alpha virt. eigenvalues --    2.98698   3.00616   3.01061   3.01389   3.02073
 Alpha virt. eigenvalues --    3.02748   3.03701   3.06019   3.07774   3.08004
 Alpha virt. eigenvalues --    3.10562   3.14941   3.16771   3.19333   3.20790
 Alpha virt. eigenvalues --    3.21661   3.22489   3.26593   3.27031   3.30060
 Alpha virt. eigenvalues --    3.31395   3.33687   3.34193   3.35351   3.37801
 Alpha virt. eigenvalues --    3.37939   3.40443   3.44540   3.47386   3.51228
 Alpha virt. eigenvalues --    3.51338   3.52549   3.53572   3.56351   3.57728
 Alpha virt. eigenvalues --    3.59760   3.63804   3.65077   3.66299   3.66416
 Alpha virt. eigenvalues --    3.68689   3.72381   3.73718   3.79268   3.81496
 Alpha virt. eigenvalues --    3.84220   3.86923   3.90169   3.90621   3.92411
 Alpha virt. eigenvalues --    3.94664   3.97547   4.04200   4.12891   4.15407
 Alpha virt. eigenvalues --    4.18545   4.19139   4.19755   4.24806   4.30545
 Alpha virt. eigenvalues --    4.37770   4.39806   4.45937   4.48178   4.71575
 Alpha virt. eigenvalues --    4.93370   4.94033   4.95107   4.97459   4.99597
 Alpha virt. eigenvalues --    5.15192   5.16007   5.57561   6.16464  14.82179
 Alpha virt. eigenvalues --   23.59917  23.83023  23.93030  23.99942  24.03612
 Alpha virt. eigenvalues --   24.07272  24.08095  24.08325  24.10999  24.11018
 Alpha virt. eigenvalues --   24.12589  24.15818  24.17652  24.19059  24.20386
 Alpha virt. eigenvalues --   24.21658  24.31497  24.32117  24.32510  24.34069
 Alpha virt. eigenvalues --   35.75066  50.17042
          Condensed to atoms (all electrons):
               1          2          3          4          5          6
     1  C    9.615479  -0.605832  -2.400353   0.158982   0.261395  -0.738318
     2  C   -0.605832   9.182951   1.122930  -1.023873   0.103550  -1.360148
     3  C   -2.400353   1.122930   8.779918  -0.266395  -1.337234   0.852873
     4  C    0.158982  -1.023873  -0.266395   8.739351   0.422606   0.462457
     5  C    0.261395   0.103550  -1.337234   0.422606   7.689802  -0.207608
     6  C   -0.738318  -1.360148   0.852873   0.462457  -0.207608   9.738695
     7  H   -0.134366   0.372396   0.026777   0.028751   0.007563   0.013646
     8  H    0.003803  -0.041766   0.383467  -0.035691   0.016838   0.008557
     9  C    0.028269  -0.492367  -0.659418   0.476266   0.656639  -0.209322
    10  O   -0.224436  -0.030079  -0.044011   0.042773  -0.119890   0.080536
    11  C   -0.114563   0.084631   0.199393   0.290243  -0.185190   0.229523
    12  C    0.622253   0.160012   0.424536  -0.350277  -1.410261  -1.376852
    13  C    0.154513  -0.076509   0.039337  -0.579702   0.116924  -0.390584
    14  C    0.003579   0.047643   0.018844  -0.017818  -0.167900   0.337640
    15  C   -0.049182  -0.020281  -0.000305  -0.072329   0.180716   0.093139
    16  C   -0.071282   0.013388  -0.012002  -0.074464   0.197168   0.147834
    17  H    0.001161  -0.000088   0.000140  -0.000295   0.001753   0.003098
    18  H    0.000143   0.000345  -0.000081  -0.000660  -0.001106  -0.007691
    19  B   -0.037716   0.013858   0.118927   0.034234   0.016872   0.190529
    20  N   -0.025132  -0.019519  -0.008276   0.019557  -0.032508  -0.108170
    21  C    0.039876   0.028354   0.009898  -0.007764  -0.016743  -0.076715
    22  H   -0.006588  -0.000910  -0.000220   0.001077  -0.001204   0.021557
    23  H    0.015382   0.005885   0.000955  -0.001468  -0.002363  -0.029020
    24  H   -0.013571  -0.017209  -0.012957   0.002575   0.028109  -0.015700
    25  C    0.010697  -0.000839   0.001197   0.002475  -0.022892  -0.019580
    26  H    0.000713  -0.000199   0.000349  -0.000159  -0.001556  -0.000041
    27  H    0.001133   0.000244   0.000005  -0.000034   0.000361  -0.002679
    28  H   -0.001661  -0.000265  -0.000182   0.000051   0.001158   0.002646
    29  C   -0.080367   0.017516   0.029646   0.138499  -0.532435   0.041839
    30  H   -0.000441  -0.000221  -0.000193   0.000014   0.002567  -0.003162
    31  C   -0.055208  -0.069886   0.217774  -0.062605  -1.060260   0.442159
    32  H   -0.000051  -0.000514   0.002697   0.022692  -0.016059   0.007915
    33  C   -0.350972  -0.127377   0.113378   0.334909   0.675372   0.241025
    34  C    0.099041  -0.317964  -0.784158  -1.911485   0.647028  -1.205785
    35  C   -0.016416  -0.737541  -0.610523  -0.870801  -0.089037  -0.953920
    36  H    0.000707   0.001691  -0.019997  -0.060907   0.016317  -0.019887
    37  H    0.015913   0.030208   0.033415  -0.069335   0.005762  -0.018564
    38  H   -0.092693  -0.213249  -0.041118   0.020014   0.022282   0.258016
    39  H   -0.207002   0.093806   0.037184   0.010626  -0.016426   0.000291
               7          8          9         10         11         12
     1  C   -0.134366   0.003803   0.028269  -0.224436  -0.114563   0.622253
     2  C    0.372396  -0.041766  -0.492367  -0.030079   0.084631   0.160012
     3  C    0.026777   0.383467  -0.659418  -0.044011   0.199393   0.424536
     4  C    0.028751  -0.035691   0.476266   0.042773   0.290243  -0.350277
     5  C    0.007563   0.016838   0.656639  -0.119890  -0.185190  -1.410261
     6  C    0.013646   0.008557  -0.209322   0.080536   0.229523  -1.376852
     7  H    0.479139  -0.010529   0.000623  -0.002661  -0.001403  -0.008142
     8  H   -0.010529   0.458486  -0.000753   0.000073   0.003404   0.001440
     9  C    0.000623  -0.000753   6.734612  -0.008632   0.150507  -0.662413
    10  O   -0.002661   0.000073  -0.008632   8.511967  -0.197226   0.132789
    11  C   -0.001403   0.003404   0.150507  -0.197226   6.441072  -0.094998
    12  C   -0.008142   0.001440  -0.662413   0.132789  -0.094998   9.623940
    13  C   -0.001259   0.001673   0.132143  -0.010164   0.171869   0.564843
    14  C    0.001226   0.000053  -0.070647  -0.258158  -0.116470   0.334112
    15  C   -0.000083   0.000346  -0.757877   0.015197  -0.103745   0.334092
    16  C    0.000482   0.000300  -0.736438   0.089920  -0.230693  -0.395238
    17  H   -0.000007   0.000007  -0.012170   0.000407   0.012294   0.028716
    18  H    0.000009   0.000003  -0.002220  -0.003983   0.023978  -0.003649
    19  B   -0.035157   0.003707   0.003248  -0.039928  -0.021249  -0.058397
    20  N   -0.000184  -0.000044   0.000632  -0.009625   0.109052  -0.000422
    21  C    0.000584  -0.000118  -0.013413   0.003137  -0.025807  -0.069743
    22  H    0.000214  -0.000042   0.004631  -0.000437  -0.010878   0.032568
    23  H   -0.000222   0.000023  -0.001473   0.000320  -0.002006   0.009270
    24  H   -0.000987   0.000234   0.003181  -0.005040   0.040038  -0.050041
    25  C   -0.000164   0.000003  -0.017369  -0.017801  -0.043965   0.121856
    26  H   -0.000022   0.000005  -0.002667  -0.001390   0.000116  -0.001614
    27  H    0.000002  -0.000001   0.001056   0.000950   0.001432   0.002060
    28  H   -0.000001  -0.000003   0.001901   0.000361  -0.008141   0.006799
    29  C    0.000303  -0.000448   0.719432   0.013550   0.190691  -0.930757
    30  H   -0.000005   0.000024   0.000707   0.000203   0.014008  -0.022827
    31  C   -0.000312   0.000048   0.078855  -0.020227   0.607130  -0.408477
    32  H    0.000025   0.000056   0.013282  -0.000016  -0.005942   0.002144
    33  C    0.002175   0.010421   0.394665  -0.003744   0.376861  -0.035667
    34  C    0.001810  -0.000889   0.045885   0.028606  -1.173942  -0.136027
    35  C    0.009448   0.011911   0.227128   0.023202  -0.755377   0.057445
    36  H   -0.000179   0.000459   0.023633   0.000571  -0.014857  -0.002528
    37  H    0.001584   0.000738  -0.012498   0.000122  -0.001297  -0.004252
    38  H   -0.007458   0.000928   0.012009  -0.002354   0.000186  -0.037160
    39  H   -0.012721   0.000318   0.000149  -0.003865  -0.001925  -0.016838
              13         14         15         16         17         18
     1  C    0.154513   0.003579  -0.049182  -0.071282   0.001161   0.000143
     2  C   -0.076509   0.047643  -0.020281   0.013388  -0.000088   0.000345
     3  C    0.039337   0.018844  -0.000305  -0.012002   0.000140  -0.000081
     4  C   -0.579702  -0.017818  -0.072329  -0.074464  -0.000295  -0.000660
     5  C    0.116924  -0.167900   0.180716   0.197168   0.001753  -0.001106
     6  C   -0.390584   0.337640   0.093139   0.147834   0.003098  -0.007691
     7  H   -0.001259   0.001226  -0.000083   0.000482  -0.000007   0.000009
     8  H    0.001673   0.000053   0.000346   0.000300   0.000007   0.000003
     9  C    0.132143  -0.070647  -0.757877  -0.736438  -0.012170  -0.002220
    10  O   -0.010164  -0.258158   0.015197   0.089920   0.000407  -0.003983
    11  C    0.171869  -0.116470  -0.103745  -0.230693   0.012294   0.023978
    12  C    0.564843   0.334112   0.334092  -0.395238   0.028716  -0.003649
    13  C   10.710413   0.445221  -0.063374  -2.644210  -0.048066  -0.007770
    14  C    0.445221  11.513594  -2.619604  -1.247626   0.019201  -0.186871
    15  C   -0.063374  -2.619604   9.132263   2.224234   0.364069   0.052872
    16  C   -2.644210  -1.247626   2.224234  10.699839  -0.006503   0.455153
    17  H   -0.048066   0.019201   0.364069  -0.006503   0.457621  -0.009983
    18  H   -0.007770  -0.186871   0.052872   0.455153  -0.009983   0.490667
    19  B   -0.004085   0.041465  -0.001221  -0.009748   0.000103  -0.001098
    20  N    0.060033  -0.240700  -0.019022  -0.500853  -0.003948  -0.023087
    21  C    0.010364  -0.085428  -0.010347  -0.035559  -0.000083  -0.007874
    22  H   -0.001517   0.039244  -0.007394  -0.033086  -0.000464  -0.001545
    23  H    0.005571  -0.000465   0.000790  -0.002861   0.000016  -0.001271
    24  H    0.006543  -0.084882   0.015720   0.033576  -0.000161   0.004404
    25  C   -0.059255   0.132650  -0.202593  -0.306122   0.003842  -0.007790
    26  H   -0.006676   0.023479  -0.005612   0.032004   0.000075   0.006675
    27  H    0.002697   0.003646   0.008672  -0.012189   0.001030  -0.011058
    28  H    0.004152  -0.012130  -0.008761  -0.008906   0.000082  -0.006818
    29  C   -0.947926  -0.515593  -1.386572  -1.241631  -0.015066   0.022758
    30  H   -0.069837   0.003770   0.023968  -0.003780   0.000801   0.001494
    31  C   -1.613557   0.280238  -0.869119  -0.195794  -0.005363   0.005815
    32  H   -0.049505   0.000108  -0.004906   0.003848   0.000678  -0.000232
    33  C    0.211707  -0.673288  -0.022235  -0.173094   0.007154   0.006725
    34  C   -0.121932  -0.202147  -0.067325  -0.083756  -0.003934   0.001037
    35  C   -0.149049  -0.095171  -0.054018  -0.059236  -0.000885  -0.000265
    36  H    0.008864  -0.001624  -0.004330  -0.001693  -0.000046   0.000048
    37  H   -0.002589   0.000107  -0.000503  -0.000938   0.000028  -0.000021
    38  H   -0.001686  -0.016316  -0.001377  -0.011618  -0.000007   0.000157
    39  H   -0.001398   0.003524  -0.000121  -0.001667   0.000009  -0.000099
              19         20         21         22         23         24
     1  C   -0.037716  -0.025132   0.039876  -0.006588   0.015382  -0.013571
     2  C    0.013858  -0.019519   0.028354  -0.000910   0.005885  -0.017209
     3  C    0.118927  -0.008276   0.009898  -0.000220   0.000955  -0.012957
     4  C    0.034234   0.019557  -0.007764   0.001077  -0.001468   0.002575
     5  C    0.016872  -0.032508  -0.016743  -0.001204  -0.002363   0.028109
     6  C    0.190529  -0.108170  -0.076715   0.021557  -0.029020  -0.015700
     7  H   -0.035157  -0.000184   0.000584   0.000214  -0.000222  -0.000987
     8  H    0.003707  -0.000044  -0.000118  -0.000042   0.000023   0.000234
     9  C    0.003248   0.000632  -0.013413   0.004631  -0.001473   0.003181
    10  O   -0.039928  -0.009625   0.003137  -0.000437   0.000320  -0.005040
    11  C   -0.021249   0.109052  -0.025807  -0.010878  -0.002006   0.040038
    12  C   -0.058397  -0.000422  -0.069743   0.032568   0.009270  -0.050041
    13  C   -0.004085   0.060033   0.010364  -0.001517   0.005571   0.006543
    14  C    0.041465  -0.240700  -0.085428   0.039244  -0.000465  -0.084882
    15  C   -0.001221  -0.019022  -0.010347  -0.007394   0.000790   0.015720
    16  C   -0.009748  -0.500853  -0.035559  -0.033086  -0.002861   0.033576
    17  H    0.000103  -0.003948  -0.000083  -0.000464   0.000016  -0.000161
    18  H   -0.001098  -0.023087  -0.007874  -0.001545  -0.001271   0.004404
    19  B    4.124974   0.001029   0.036682   0.018434  -0.009196  -0.064921
    20  N    0.001029   7.331993   0.257713  -0.099719  -0.053103  -0.012487
    21  C    0.036682   0.257713   5.484516   0.452166   0.382455   0.313450
    22  H    0.018434  -0.099719   0.452166   0.610288  -0.060750  -0.084462
    23  H   -0.009196  -0.053103   0.382455  -0.060750   0.562913  -0.005514
    24  H   -0.064921  -0.012487   0.313450  -0.084462  -0.005514   0.678619
    25  C   -0.012769   0.354852  -0.178087  -0.022252  -0.004089   0.013658
    26  H   -0.003199  -0.074520  -0.013979  -0.007453   0.003117   0.007455
    27  H    0.001236  -0.032180  -0.001258   0.019008   0.003864  -0.007246
    28  H    0.000219  -0.058350   0.013889   0.000031  -0.002753  -0.002084
    29  C   -0.004252   0.003441   0.000240  -0.002351   0.000544   0.010253
    30  H    0.000052   0.000264   0.000234   0.000012   0.000008   0.000078
    31  C   -0.002541  -0.006638   0.000196  -0.000211  -0.000029  -0.000870
    32  H    0.000015  -0.000204  -0.000024  -0.000003   0.000002  -0.000022
    33  C   -0.001277   0.033706  -0.002179  -0.001480   0.000487   0.008036
    34  C   -0.001451   0.011983  -0.002730  -0.000418  -0.000033   0.003909
    35  C    0.008001   0.008270   0.000740  -0.000080   0.000042   0.001126
    36  H   -0.000068   0.000039  -0.000047  -0.000006  -0.000003   0.000086
    37  H    0.000122  -0.000030   0.000058   0.000012  -0.000001  -0.000096
    38  H    0.425851   0.007500  -0.045725  -0.012380   0.001212   0.057703
    39  H    0.497778  -0.000452   0.003516   0.000994   0.000755  -0.011439
              25         26         27         28         29         30
     1  C    0.010697   0.000713   0.001133  -0.001661  -0.080367  -0.000441
     2  C   -0.000839  -0.000199   0.000244  -0.000265   0.017516  -0.000221
     3  C    0.001197   0.000349   0.000005  -0.000182   0.029646  -0.000193
     4  C    0.002475  -0.000159  -0.000034   0.000051   0.138499   0.000014
     5  C   -0.022892  -0.001556   0.000361   0.001158  -0.532435   0.002567
     6  C   -0.019580  -0.000041  -0.002679   0.002646   0.041839  -0.003162
     7  H   -0.000164  -0.000022   0.000002  -0.000001   0.000303  -0.000005
     8  H    0.000003   0.000005  -0.000001  -0.000003  -0.000448   0.000024
     9  C   -0.017369  -0.002667   0.001056   0.001901   0.719432   0.000707
    10  O   -0.017801  -0.001390   0.000950   0.000361   0.013550   0.000203
    11  C   -0.043965   0.000116   0.001432  -0.008141   0.190691   0.014008
    12  C    0.121856  -0.001614   0.002060   0.006799  -0.930757  -0.022827
    13  C   -0.059255  -0.006676   0.002697   0.004152  -0.947926  -0.069837
    14  C    0.132650   0.023479   0.003646  -0.012130  -0.515593   0.003770
    15  C   -0.202593  -0.005612   0.008672  -0.008761  -1.386572   0.023968
    16  C   -0.306122   0.032004  -0.012189  -0.008906  -1.241631  -0.003780
    17  H    0.003842   0.000075   0.001030   0.000082  -0.015066   0.000801
    18  H   -0.007790   0.006675  -0.011058  -0.006818   0.022758   0.001494
    19  B   -0.012769  -0.003199   0.001236   0.000219  -0.004252   0.000052
    20  N    0.354852  -0.074520  -0.032180  -0.058350   0.003441   0.000264
    21  C   -0.178087  -0.013979  -0.001258   0.013889   0.000240   0.000234
    22  H   -0.022252  -0.007453   0.019008   0.000031  -0.002351   0.000012
    23  H   -0.004089   0.003117   0.003864  -0.002753   0.000544   0.000008
    24  H    0.013658   0.007455  -0.007246  -0.002084   0.010253   0.000078
    25  C    5.431275   0.413359   0.375752   0.435556  -0.029782  -0.000802
    26  H    0.413359   0.505219  -0.056266  -0.002886  -0.001615  -0.000045
    27  H    0.375752  -0.056266   0.601957  -0.048836  -0.001435  -0.000013
    28  H    0.435556  -0.002886  -0.048836   0.522290   0.002168  -0.000021
    29  C   -0.029782  -0.001615  -0.001435   0.002168   9.655267   0.396396
    30  H   -0.000802  -0.000045  -0.000013  -0.000021   0.396396   0.459020
    31  C    0.002730   0.000161  -0.000410  -0.000196   2.692560   0.018269
    32  H   -0.000014   0.000003   0.000001   0.000001  -0.024060  -0.002997
    33  C   -0.010497  -0.000740  -0.000056   0.000831  -1.474111  -0.015477
    34  C   -0.000641  -0.000105  -0.000079   0.000179  -0.240032   0.005079
    35  C    0.000086  -0.000087   0.000018   0.000096  -0.103848   0.004152
    36  H   -0.000010  -0.000001  -0.000001  -0.000000  -0.000376   0.000404
    37  H   -0.000015  -0.000002   0.000001   0.000002   0.002507  -0.000119
    38  H    0.012831   0.002679  -0.001389   0.000482  -0.001179  -0.000020
    39  H   -0.000542  -0.000152   0.000026   0.000069  -0.000308   0.000002
              31         32         33         34         35         36
     1  C   -0.055208  -0.000051  -0.350972   0.099041  -0.016416   0.000707
     2  C   -0.069886  -0.000514  -0.127377  -0.317964  -0.737541   0.001691
     3  C    0.217774   0.002697   0.113378  -0.784158  -0.610523  -0.019997
     4  C   -0.062605   0.022692   0.334909  -1.911485  -0.870801  -0.060907
     5  C   -1.060260  -0.016059   0.675372   0.647028  -0.089037   0.016317
     6  C    0.442159   0.007915   0.241025  -1.205785  -0.953920  -0.019887
     7  H   -0.000312   0.000025   0.002175   0.001810   0.009448  -0.000179
     8  H    0.000048   0.000056   0.010421  -0.000889   0.011911   0.000459
     9  C    0.078855   0.013282   0.394665   0.045885   0.227128   0.023633
    10  O   -0.020227  -0.000016  -0.003744   0.028606   0.023202   0.000571
    11  C    0.607130  -0.005942   0.376861  -1.173942  -0.755377  -0.014857
    12  C   -0.408477   0.002144  -0.035667  -0.136027   0.057445  -0.002528
    13  C   -1.613557  -0.049505   0.211707  -0.121932  -0.149049   0.008864
    14  C    0.280238   0.000108  -0.673288  -0.202147  -0.095171  -0.001624
    15  C   -0.869119  -0.004906  -0.022235  -0.067325  -0.054018  -0.004330
    16  C   -0.195794   0.003848  -0.173094  -0.083756  -0.059236  -0.001693
    17  H   -0.005363   0.000678   0.007154  -0.003934  -0.000885  -0.000046
    18  H    0.005815  -0.000232   0.006725   0.001037  -0.000265   0.000048
    19  B   -0.002541   0.000015  -0.001277  -0.001451   0.008001  -0.000068
    20  N   -0.006638  -0.000204   0.033706   0.011983   0.008270   0.000039
    21  C    0.000196  -0.000024  -0.002179  -0.002730   0.000740  -0.000047
    22  H   -0.000211  -0.000003  -0.001480  -0.000418  -0.000080  -0.000006
    23  H   -0.000029   0.000002   0.000487  -0.000033   0.000042  -0.000003
    24  H   -0.000870  -0.000022   0.008036   0.003909   0.001126   0.000086
    25  C    0.002730  -0.000014  -0.010497  -0.000641   0.000086  -0.000010
    26  H    0.000161   0.000003  -0.000740  -0.000105  -0.000087  -0.000001
    27  H   -0.000410   0.000001  -0.000056  -0.000079   0.000018  -0.000001
    28  H   -0.000196   0.000001   0.000831   0.000179   0.000096  -0.000000
    29  C    2.692560  -0.024060  -1.474111  -0.240032  -0.103848  -0.000376
    30  H    0.018269  -0.002997  -0.015477   0.005079   0.004152   0.000404
    31  C   10.340960   0.406410  -1.834173  -1.582203  -0.758749  -0.003487
    32  H    0.406410   0.450282  -0.044087   0.034174   0.009190   0.003274
    33  C   -1.834173  -0.044087  10.570203  -0.772047  -1.917653  -0.044173
    34  C   -1.582203   0.034174  -0.772047  10.312288   3.234938   0.475583
    35  C   -0.758749   0.009190  -1.917653   3.234938   9.510462  -0.010624
    36  H   -0.003487   0.003274  -0.044173   0.475583  -0.010624   0.457269
    37  H   -0.001374   0.000122  -0.014762  -0.001231   0.385282  -0.006137
    38  H   -0.001003  -0.000023   0.001200   0.004420   0.001907   0.000028
    39  H   -0.000474   0.000008  -0.001582  -0.001991  -0.005912  -0.000034
              37         38         39
     1  C    0.015913  -0.092693  -0.207002
     2  C    0.030208  -0.213249   0.093806
     3  C    0.033415  -0.041118   0.037184
     4  C   -0.069335   0.020014   0.010626
     5  C    0.005762   0.022282  -0.016426
     6  C   -0.018564   0.258016   0.000291
     7  H    0.001584  -0.007458  -0.012721
     8  H    0.000738   0.000928   0.000318
     9  C   -0.012498   0.012009   0.000149
    10  O    0.000122  -0.002354  -0.003865
    11  C   -0.001297   0.000186  -0.001925
    12  C   -0.004252  -0.037160  -0.016838
    13  C   -0.002589  -0.001686  -0.001398
    14  C    0.000107  -0.016316   0.003524
    15  C   -0.000503  -0.001377  -0.000121
    16  C   -0.000938  -0.011618  -0.001667
    17  H    0.000028  -0.000007   0.000009
    18  H   -0.000021   0.000157  -0.000099
    19  B    0.000122   0.425851   0.497778
    20  N   -0.000030   0.007500  -0.000452
    21  C    0.000058  -0.045725   0.003516
    22  H    0.000012  -0.012380   0.000994
    23  H   -0.000001   0.001212   0.000755
    24  H   -0.000096   0.057703  -0.011439
    25  C   -0.000015   0.012831  -0.000542
    26  H   -0.000002   0.002679  -0.000152
    27  H    0.000001  -0.001389   0.000026
    28  H    0.000002   0.000482   0.000069
    29  C    0.002507  -0.001179  -0.000308
    30  H   -0.000119  -0.000020   0.000002
    31  C   -0.001374  -0.001003  -0.000474
    32  H    0.000122  -0.000023   0.000008
    33  C   -0.014762   0.001200  -0.001582
    34  C   -0.001231   0.004420  -0.001991
    35  C    0.385282   0.001907  -0.005912
    36  H   -0.006137   0.000028  -0.000034
    37  H    0.457970  -0.000205   0.000290
    38  H   -0.000205   0.687759  -0.029623
    39  H    0.000290  -0.029623   0.649917
 Mulliken charges:
               1
     1  C    0.193111
     2  C   -0.122773
     3  C   -0.216217
     4  C    0.197910
     5  C    0.149887
     6  C   -0.430233
     7  H    0.269104
     8  H    0.182959
     9  C   -0.049777
    10  O    0.058980
    11  C    0.163243
    12  C   -0.382295
    13  C    0.203783
    14  C   -0.636508
    15  C   -0.093844
    16  C    0.203242
    17  H    0.204784
    18  H    0.212885
    19  B   -0.229061
    20  N    0.129109
    21  C   -0.444447
    22  H    0.155614
    23  H    0.183009
    24  H    0.160936
    25  C   -0.354948
    26  H    0.185576
    27  H    0.149979
    28  H    0.169031
    29  C   -0.403468
    30  H    0.188434
    31  C   -0.540141
    32  H    0.191733
    33  C    0.531813
    34  C   -0.293654
    35  C   -0.304253
    36  H    0.202044
    37  H    0.199724
    38  H   -0.000578
    39  H    0.015309
 Sum of Mulliken charges =  -0.00000
 Mulliken charges with hydrogens summed into heavy atoms:
               1
     1  C    0.193111
     2  C    0.146331
     3  C   -0.033257
     4  C    0.197910
     5  C    0.149887
     6  C   -0.430233
     9  C   -0.049777
    10  O    0.058980
    11  C    0.163243
    12  C   -0.382295
    13  C    0.203783
    14  C   -0.636508
    15  C    0.110940
    16  C    0.416127
    19  B   -0.214331
    20  N    0.129109
    21  C    0.055111
    25  C    0.149637
    29  C   -0.215034
    31  C   -0.348408
    33  C    0.531813
    34  C   -0.091610
    35  C   -0.104529
 Electronic spatial extent (au):  <R**2>=          19970.2700
 Charge=             -0.0000 electrons
 Dipole moment (field-independent basis, Debye):
    X=             -0.5657    Y=              2.2175    Z=             -1.1309  Tot=              2.5527
 Quadrupole moment (field-independent basis, Debye-Ang):
   XX=           -112.0847   YY=           -115.6908   ZZ=           -129.4459
   XY=             -1.2290   XZ=             13.5980   YZ=             -8.3201
 Traceless Quadrupole moment (field-independent basis, Debye-Ang):
   XX=              6.9891   YY=              3.3830   ZZ=            -10.3721
   XY=             -1.2290   XZ=             13.5980   YZ=             -8.3201
 Octapole moment (field-independent basis, Debye-Ang**2):
  XXX=           1057.2815  YYY=          -1325.6393  ZZZ=            269.2824  XYY=            422.4623
  XXY=           -440.8166  XXZ=             13.5657  XZZ=            380.5235  YZZ=           -463.2779
  YYZ=             15.4736  XYZ=             54.4305
 Hexadecapole moment (field-independent basis, Debye-Ang**3):
 XXXX=         -10437.3545 YYYY=         -12599.8132 ZZZZ=          -2539.5032 XXXY=           3671.9984
 XXXZ=          -1147.7586 YYYX=           4089.8964 YYYZ=            996.1240 ZZZX=          -1580.0710
 ZZZY=           1541.2384 XXYY=          -4155.0662 XXZZ=          -2113.6610 YYZZ=          -2503.0988
 XXYZ=            269.2800 YYXZ=           -248.1237 ZZXY=           1147.2321
 N-N= 1.808378175951D+03 E-N=-5.769460031255D+03  KE= 9.226725802472D+02
 Breneman (CHELPG) radii used.
 Generate Potential Derived Charges using the Breneman model, NDens= 1.
 Grid spacing= 0.300 Box extension= 2.800
 NStep X,Y,Z=   51     47     41   Total possible points=       98277
 Number of Points to Fit=   21360

 **********************************************************************

            Electrostatic Properties Using The SCF Density.

 **********************************************************************

       Atomic Center    1 is at  -2.136640  1.634661  1.208493
       Atomic Center    2 is at  -0.900726  1.826549  1.894061
       Atomic Center    3 is at  -0.100344  2.919502  1.703532
       Atomic Center    4 is at  -0.491593  3.926134  0.787765
       Atomic Center    5 is at  -1.708042  3.777779  0.089792
       Atomic Center    6 is at  -2.508140  2.635712  0.308294
       Atomic Center    7 is at  -0.595194  1.058396  2.596892
       Atomic Center    8 is at   0.833390  3.026836  2.244100
       Atomic Center    9 is at  -2.130172  4.768878 -0.838999
       Atomic Center   10 is at  -3.672318  2.486100 -0.367852
       Atomic Center   11 is at  -3.369438  4.579582 -1.515013
       Atomic Center   12 is at  -4.126044  3.430774 -1.249729
       Atomic Center   13 is at  -3.813759  5.531581 -2.456819
       Atomic Center   14 is at  -5.346352  3.195046 -1.879808
       Atomic Center   15 is at  -5.031653  5.287362 -3.110381
       Atomic Center   16 is at  -5.769044  4.160042 -2.820295
       Atomic Center   17 is at  -5.399768  5.998579 -3.841675
       Atomic Center   18 is at  -6.711971  4.011212 -3.330715
       Atomic Center   19 is at  -2.982804  0.385591  1.473571
       Atomic Center   20 is at  -6.078095  2.027209 -1.605034
       Atomic Center   21 is at  -6.534871  1.869297 -0.227974
       Atomic Center   22 is at  -7.366435  2.553626  0.003944
       Atomic Center   23 is at  -6.880317  0.843181 -0.083793
       Atomic Center   24 is at  -5.720357  2.049454  0.469639
       Atomic Center   25 is at  -7.101843  1.658790 -2.563109
       Atomic Center   26 is at  -7.420401  0.635936 -2.351456
       Atomic Center   27 is at  -7.994680  2.304651 -2.519061
       Atomic Center   28 is at  -6.699111  1.684114 -3.577178
       Atomic Center   29 is at  -2.994334  6.683907 -2.691394
       Atomic Center   30 is at  -3.334412  7.420007 -3.412199
       Atomic Center   31 is at  -1.819103  6.862092 -2.033406
       Atomic Center   32 is at  -1.214348  7.742542 -2.223577
       Atomic Center   33 is at  -1.351324  5.898442 -1.082134
       Atomic Center   34 is at  -0.124784  6.034580 -0.368631
       Atomic Center   35 is at   0.287407  5.093086  0.527425
       Atomic Center   36 is at   0.487880  6.911797 -0.550605
       Atomic Center   37 is at   1.224722  5.219036  1.058345
       Atomic Center   38 is at  -4.023708  0.194998  0.923188
       Atomic Center   39 is at  -2.579408 -0.419108  2.263865
   21360 points will be used for fitting atomic charges
 Fitting point charges to electrostatic potential
 Charges from ESP fit, RMS=   0.00504 RRMS=   0.42742:
 ESP charges:
               1
     1  C   -0.370110
     2  C   -0.024680
     3  C   -0.314521
     4  C    0.230476
     5  C   -0.126026
     6  C    0.451024
     7  H    0.108414
     8  H    0.144244
     9  C    0.035214
    10  O   -0.347738
    11  C   -0.056284
    12  C    0.164032
    13  C    0.147896
    14  C    0.158926
    15  C   -0.323580
    16  C   -0.095419
    17  H    0.156874
    18  H    0.130291
    19  B    0.537541
    20  N   -0.322808
    21  C    0.119645
    22  H   -0.028870
    23  H    0.053671
    24  H    0.027305
    25  C   -0.103650
    26  H    0.082242
    27  H    0.062968
    28  H    0.058950
    29  C   -0.151252
    30  H    0.123519
    31  C   -0.248092
    32  H    0.142187
    33  C    0.137879
    34  C   -0.150425
    35  C   -0.240732
    36  H    0.128627
    37  H    0.141440
    38  H   -0.223921
    39  H   -0.215257
 Sum of ESP charges =  -0.00000
 ESP charges with hydrogens summed into heavy atoms:
               1
     1  C   -0.370110
     2  C    0.083734
     3  C   -0.170277
     4  C    0.230476
     5  C   -0.126026
     6  C    0.451024
     9  C    0.035214
    10  O   -0.347738
    11  C   -0.056284
    12  C    0.164032
    13  C    0.147896
    14  C    0.158926
    15  C   -0.166706
    16  C    0.034872
    19  B    0.098364
    20  N   -0.322808
    21  C    0.171751
    25  C    0.100509
    29  C   -0.027733
    31  C   -0.105905
    33  C    0.137879
    34  C   -0.021799
    35  C   -0.099291
 Charge=  -0.00000 Dipole=    -0.5004     2.2897    -1.0943 Tot=     2.5866
 -----------------------------------------------------------------

              Electrostatic Properties (Atomic Units)

 -----------------------------------------------------------------
    Center     Electric         -------- Electric Field --------
               Potential          X             Y             Z
 -----------------------------------------------------------------
    1 Atom    -14.791552
    2 Atom    -14.767837
    3 Atom    -14.775028
    4 Atom    -14.748351
    5 Atom    -14.752917
    6 Atom    -14.688398
    7 Atom     -1.107779
    8 Atom     -1.099876
    9 Atom    -14.751037
   10 Atom    -22.302089
   11 Atom    -14.753734
   12 Atom    -14.701983
   13 Atom    -14.757512
   14 Atom    -14.729485
   15 Atom    -14.768716
   16 Atom    -14.765440
   17 Atom     -1.096348
   18 Atom     -1.093288
   19 Atom    -11.478471
   20 Atom    -18.380164
   21 Atom    -14.755704
   22 Atom     -1.122528
   23 Atom     -1.118398
   24 Atom     -1.121768
   25 Atom    -14.746995
   26 Atom     -1.110096
   27 Atom     -1.113273
   28 Atom     -1.108742
   29 Atom    -14.764728
   30 Atom     -1.094848
   31 Atom    -14.764359
   32 Atom     -1.093713
   33 Atom    -14.756027
   34 Atom    -14.757385
   35 Atom    -14.762926
   36 Atom     -1.089291
   37 Atom     -1.092620
   38 Atom     -1.175353
   39 Atom     -1.172634
 -----------------------------------------------------------------
 Unable to Open any file for archive entry.
 1\1\GINC-IRENE4973\SP\RwB97XD\GenECP\C20H16B1N1O1\PENASFRA\10-Apr-2024
 \0\\# wb97xd/genecp scrf=(solvent=toluene,pcm) nosymm pop=(chelpg) scf
 cyc=300\\h_naphtoxanthene_chelpg\\0,1\C,0,-2.13664,1.634661,1.208493\C
 ,0,-0.900726,1.826549,1.894061\C,0,-0.100344,2.919502,1.703532\C,0,-0.
 491593,3.926134,0.787765\C,0,-1.708042,3.777779,0.089792\C,0,-2.50814,
 2.635712,0.308294\H,0,-0.595194,1.058396,2.596892\H,0,0.83339,3.026836
 ,2.2441\C,0,-2.130172,4.768878,-0.838999\O,0,-3.672318,2.4861,-0.36785
 2\C,0,-3.369438,4.579582,-1.515013\C,0,-4.126044,3.430774,-1.249729\C,
 0,-3.813759,5.531581,-2.456819\C,0,-5.346352,3.195046,-1.879808\C,0,-5
 .031653,5.287362,-3.110381\C,0,-5.769044,4.160042,-2.820295\H,0,-5.399
 768,5.998579,-3.841675\H,0,-6.711971,4.011212,-3.330715\B,0,-2.982804,
 0.385591,1.473571\N,0,-6.078095,2.027209,-1.605034\C,0,-6.534871,1.869
 297,-0.227974\H,0,-7.366435,2.553626,0.003944\H,0,-6.880317,0.843181,-
 0.083793\H,0,-5.720357,2.049454,0.469639\C,0,-7.101843,1.65879,-2.5631
 09\H,0,-7.420401,0.635936,-2.351456\H,0,-7.99468,2.304651,-2.519061\H,
 0,-6.699111,1.684114,-3.577178\C,0,-2.994334,6.683907,-2.691394\H,0,-3
 .334412,7.420007,-3.412199\C,0,-1.819103,6.862092,-2.033406\H,0,-1.214
 348,7.742542,-2.223577\C,0,-1.351324,5.898442,-1.082134\C,0,-0.124784,
 6.03458,-0.368631\C,0,0.287407,5.093086,0.527425\H,0,0.48788,6.911797,
 -0.550605\H,0,1.224722,5.219036,1.058345\H,0,-4.023708,0.194998,0.9231
 88\H,0,-2.579408,-0.419108,2.263865\\Version=AS64L-G16RevC.02\HF=-926.
 5140943\RMSD=8.027e-09\Dipole=-0.2225466,0.8724149,-0.4449449\Quadrupo
 le=5.1962051,2.5151982,-7.7114032,-0.9137046,10.1097837,-6.1857668\PG=
 C01 [X(C20H16B1N1O1)]\\@
 The archive entry for this job was punched.


 A FOOL CAN ASK MORE QUESTIONS THAN
 A WISE MAN CAN ANSWER.
 Job cpu time:       0 days  2 hours 23 minutes 12.7 seconds.
 Elapsed time:       0 days  0 hours  1 minutes 28.2 seconds.
 File lengths (MBytes):  RWF=    328 Int=      0 D2E=      0 Chk=     24 Scr=      1
 Normal termination of Gaussian 16 at Wed Apr 10 16:38:17 2024.
