 Entering Gaussian System, Link 0=/ccc/products/gaussian-16-C.02/system/default/g16/g16
 Input=h_naphthalene_chelpg.gjf
 Output=h_naphthalene_chelpg.log
 Initial command:
 /ccc/products/gaussian-16-C.02/system/default/g16/l1.exe "/ccc/scratch/cont003/gen7343/penasfra/flp/b-n_flp/h_naphtalene/reac/Gau-183967.inp" -scrdir="/ccc/scratch/cont003/gen7343/penasfra/flp/b-n_flp/h_naphtalene/reac/"
 Entering Link 1 = /ccc/products/gaussian-16-C.02/system/default/g16/l1.exe PID=    184016.
  
 Copyright (c) 1988-2021, Gaussian, Inc.  All Rights Reserved.
  
 This is part of the Gaussian(R) 16 program.  It is based on
 the Gaussian(R) 09 system (copyright 2009, Gaussian, Inc.),
 the Gaussian(R) 03 system (copyright 2003, Gaussian, Inc.),
 the Gaussian(R) 98 system (copyright 1998, Gaussian, Inc.),
 the Gaussian(R) 94 system (copyright 1995, Gaussian, Inc.),
 the Gaussian 92(TM) system (copyright 1992, Gaussian, Inc.),
 the Gaussian 90(TM) system (copyright 1990, Gaussian, Inc.),
 the Gaussian 88(TM) system (copyright 1988, Gaussian, Inc.),
 the Gaussian 86(TM) system (copyright 1986, Carnegie Mellon
 University), and the Gaussian 82(TM) system (copyright 1983,
 Carnegie Mellon University). Gaussian is a federally registered
 trademark of Gaussian, Inc.
  
 This software contains proprietary and confidential information,
 including trade secrets, belonging to Gaussian, Inc.
  
 This software is provided under written license and may be
 used, copied, transmitted, or stored only in accord with that
 written license.
  
 The following legend is applicable only to US Government
 contracts under FAR:
  
                    RESTRICTED RIGHTS LEGEND
  
 Use, reproduction and disclosure by the US Government is
 subject to restrictions as set forth in subparagraphs (a)
 and (c) of the Commercial Computer Software - Restricted
 Rights clause in FAR 52.227-19.
  
 Gaussian, Inc.
 340 Quinnipiac St., Bldg. 40, Wallingford CT 06492
  
  
 ---------------------------------------------------------------
 Warning -- This program may not be used in any manner that
 competes with the business of Gaussian, Inc. or will provide
 assistance to any competitor of Gaussian, Inc.  The licensee
 of this program is prohibited from giving any competitor of
 Gaussian, Inc. access to this program.  By using this program,
 the user acknowledges that Gaussian, Inc. is engaged in the
 business of creating and licensing software in the field of
 computational chemistry and represents and warrants to the
 licensee that it is not a competitor of Gaussian, Inc. and that
 it will not use this program in any manner prohibited above.
 ---------------------------------------------------------------
  

 Cite this work as:
 Gaussian 16, Revision C.02,
 M. J. Frisch, G. W. Trucks, H. B. Schlegel, G. E. Scuseria, 
 M. A. Robb, J. R. Cheeseman, G. Scalmani, V. Barone, 
 G. A. Petersson, H. Nakatsuji, X. Li, M. Caricato, A. V. Marenich, 
 J. Bloino, B. G. Janesko, R. Gomperts, B. Mennucci, H. P. Hratchian, 
 J. V. Ortiz, A. F. Izmaylov, J. L. Sonnenberg, D. Williams-Young, 
 F. Ding, F. Lipparini, F. Egidi, J. Goings, B. Peng, A. Petrone, 
 T. Henderson, D. Ranasinghe, V. G. Zakrzewski, J. Gao, N. Rega, 
 G. Zheng, W. Liang, M. Hada, M. Ehara, K. Toyota, R. Fukuda, 
 J. Hasegawa, M. Ishida, T. Nakajima, Y. Honda, O. Kitao, H. Nakai, 
 T. Vreven, K. Throssell, J. A. Montgomery, Jr., J. E. Peralta, 
 F. Ogliaro, M. J. Bearpark, J. J. Heyd, E. N. Brothers, K. N. Kudin, 
 V. N. Staroverov, T. A. Keith, R. Kobayashi, J. Normand, 
 K. Raghavachari, A. P. Rendell, J. C. Burant, S. S. Iyengar, 
 J. Tomasi, M. Cossi, J. M. Millam, M. Klene, C. Adamo, R. Cammi, 
 J. W. Ochterski, R. L. Martin, K. Morokuma, O. Farkas, 
 J. B. Foresman, and D. J. Fox, Gaussian, Inc., Wallingford CT, 2019.
 
 ******************************************
 Gaussian 16:  AS64L-G16RevC.02  7-Dec-2021
                10-Apr-2024 
 ******************************************
 %nprocshared=128
 Will use up to  128 processors via shared memory.
 %mem=30GB
 %chk=h_naphthalene_chelpg.chk
 ----------------------------------------------------------------------
 # wb97xd/genecp scrf=(solvent=toluene,pcm) nosymm pop=(chelpg) scfcyc=
 300
 ----------------------------------------------------------------------
 1/38=1,172=1/1;
 2/12=2,15=1,17=6,18=5,40=1/2;
 3/5=7,11=2,16=1,17=8,25=1,30=1,70=2201,72=13,74=-58/1,2,3;
 4//1;
 5/5=2,7=300,38=5,53=13/2;
 6/7=2,8=2,9=2,10=2,15=8,20=3,28=1/1,2;
 99/5=1,9=1/99;
 --------------------
 h_naphthalene_chelpg
 --------------------
 Symbolic Z-matrix:
 Charge =  0 Multiplicity = 1
 C                    -5.41628  -0.78793   0.18553 
 C                    -4.06254  -0.76472   0.00852 
 C                    -3.34461   0.43881  -0.04419 
 C                    -4.00328   1.67789   0.07851 
 C                    -5.41061   1.65046   0.26297 
 C                    -6.08635   0.4557    0.31588 
 H                    -5.98048  -1.71288   0.2259 
 C                    -1.94949   0.28059  -0.2246 
 C                    -3.19121   2.83704   0.00642 
 H                    -5.95349   2.58474   0.36324 
 H                    -7.16104   0.45413   0.45843 
 C                    -1.83465   2.7035   -0.17476 
 C                    -1.20716   1.43631  -0.28988 
 H                    -3.6436    3.81923   0.09435 
 H                    -1.2204    3.5968   -0.22948 
 H                    -0.13086   1.39784  -0.42665 
 B                    -1.60883  -1.28212  -0.28082 
 N                    -3.17853  -1.92616  -0.16709 
 C                    -3.28612  -2.84959   0.98929 
 H                    -4.29489  -3.26449   1.05301 
 H                    -2.56262  -3.65375   0.85982 
 H                    -3.05251  -2.29984   1.89891 
 C                    -3.53333  -2.64656  -1.41688 
 H                    -2.8302   -3.46649  -1.55804 
 H                    -4.55298  -3.03411  -1.35358 
 H                    -3.45116  -1.95495  -2.25343 
 H                    -1.144    -1.68252  -1.32502 
 H                    -0.99944  -1.69518   0.68176 
 
                          Input orientation:                          
 ---------------------------------------------------------------------
 Center     Atomic      Atomic             Coordinates (Angstroms)
 Number     Number       Type             X           Y           Z
 ---------------------------------------------------------------------
      1          6           0       -5.416282   -0.787926    0.185525
      2          6           0       -4.062535   -0.764722    0.008523
      3          6           0       -3.344612    0.438806   -0.044194
      4          6           0       -4.003277    1.677889    0.078508
      5          6           0       -5.410614    1.650456    0.262969
      6          6           0       -6.086353    0.455703    0.315883
      7          1           0       -5.980475   -1.712883    0.225895
      8          6           0       -1.949491    0.280590   -0.224597
      9          6           0       -3.191207    2.837037    0.006420
     10          1           0       -5.953485    2.584736    0.363236
     11          1           0       -7.161038    0.454127    0.458431
     12          6           0       -1.834647    2.703504   -0.174761
     13          6           0       -1.207161    1.436314   -0.289875
     14          1           0       -3.643597    3.819226    0.094346
     15          1           0       -1.220398    3.596797   -0.229477
     16          1           0       -0.130856    1.397836   -0.426645
     17          5           0       -1.608828   -1.282124   -0.280823
     18          7           0       -3.178526   -1.926157   -0.167094
     19          6           0       -3.286121   -2.849586    0.989290
     20          1           0       -4.294891   -3.264491    1.053010
     21          1           0       -2.562620   -3.653747    0.859823
     22          1           0       -3.052507   -2.299841    1.898910
     23          6           0       -3.533331   -2.646564   -1.416875
     24          1           0       -2.830196   -3.466487   -1.558044
     25          1           0       -4.552981   -3.034112   -1.353578
     26          1           0       -3.451159   -1.954950   -2.253427
     27          1           0       -1.144004   -1.682523   -1.325020
     28          1           0       -0.999444   -1.695175    0.681759
 ---------------------------------------------------------------------
                    Distance matrix (angstroms):
                    1          2          3          4          5
     1  C    0.000000
     2  C    1.365467   0.000000
     3  C    2.418565   1.402381   0.000000
     4  C    2.843990   2.444332   1.408624   0.000000
     5  C    2.439618   2.777615   2.414707   1.419639   0.000000
     6  C    1.418662   2.383222   2.765336   2.426786   1.373629
     7  H    1.084200   2.150524   3.413281   3.927896   3.411476
     8  C    3.650831   2.368961   1.415606   2.502470   3.754148
     9  C    4.257158   3.705656   2.403665   1.417137   2.529735
    10  H    3.419798   3.862691   3.402533   2.169505   1.085192
    11  H    2.159015   3.359871   3.849412   3.407842   2.129177
    12  C    5.014778   4.126217   2.725050   2.412258   3.753406
    13  C    4.784344   3.617563   2.371514   2.830606   4.245057
    14  H    4.937264   4.603852   3.396443   2.171392   2.802561
    15  H    6.083047   5.211260   3.810449   3.394330   4.646359
    16  H    5.752220   4.508229   3.375535   3.915259   5.330594
    17  B    3.867611   2.524303   2.455716   3.824158   4.832113
    18  N    2.535244   1.470117   2.373971   3.705359   4.237845
    19  C    3.071492   2.431333   3.447468   4.673528   5.029055
    20  H    2.853668   2.719152   3.977599   5.045970   5.101540
    21  H    4.100121   3.364658   4.263537   5.577839   6.049948
    22  H    3.287705   2.636344   3.370633   4.476624   4.882808
    23  C    3.093174   2.419328   3.382215   4.599773   4.981009
    24  H    4.111273   3.357428   4.219915   5.524403   6.013132
    25  H    2.856480   2.691837   3.903306   4.955401   5.029308
    26  H    3.342475   2.628087   3.259161   4.352043   4.813592
    27  H    4.618919   3.337442   3.314095   4.630087   5.642200
    28  H    4.536277   3.271317   3.252798   4.556806   5.552212
                    6          7          8          9         10
     6  C    0.000000
     7  H    2.173033   0.000000
     8  C    4.175693   4.519481   0.000000
     9  C    3.761434   5.341344   2.851429   0.000000
    10  H    2.133700   4.299898   4.656888   2.796632   0.000000
    11  H    1.084099   2.478656   5.258979   4.652111   2.450865
    12  C    4.834288   6.070658   2.426146   1.375105   4.155523
    13  C    5.013487   5.741776   1.375141   2.446682   4.926766
    14  H    4.162862   6.006874   3.936199   1.084935   2.632841
    15  H    5.817337   7.145516   3.395413   2.125317   4.876237
    16  H    6.075106   6.657359   2.143944   3.409486   5.994635
    17  B    4.839869   4.421947   1.600402   4.421981   5.851791
    18  N    3.789721   2.837401   2.526572   4.766370   5.322575
    19  C    4.384029   3.022318   3.613600   5.771718   6.085937
    20  H    4.194346   2.435734   4.438556   6.288252   6.118838
    21  H    5.440601   3.981275   4.126851   6.576754   7.117811
    22  H    4.393543   3.422937   3.519169   5.476155   5.884986
    23  C    4.375435   3.091758   3.535294   5.675623   6.032615
    24  H    5.431182   4.022664   4.073611   6.504790   7.075560
    25  H    4.161387   2.505618   4.363486   6.178545   6.039894
    26  H    4.399642   3.550081   3.371765   5.304491   5.806661
    27  H    5.629510   5.079145   2.390304   5.137139   6.647617
    28  H    5.535051   5.001879   2.372281   5.079454   6.554511
                   11         12         13         14         15
    11  H    0.000000
    12  C    5.816448   0.000000
    13  C    6.080568   1.418718   0.000000
    14  H    4.881479   2.142324   3.429594   0.000000
    15  H    6.755797   1.085481   2.161368   2.454838   0.000000
    16  H    7.148245   2.161277   1.085642   4.298129   2.461992
    17  B    5.864137   3.993429   2.747967   5.504980   4.894628
    18  N    4.681606   4.820771   3.899688   5.770101   5.860135
    19  C    5.119698   5.856501   4.932269   6.738083   6.878114
    20  H    4.732488   6.570935   5.782299   7.177901   7.627224
    21  H    6.179093   6.481894   5.391456   7.589453   7.453759
    22  H    5.151635   5.551284   4.706903   6.406935   6.531232
    23  C    5.127506   5.749052   4.832296   6.640963   6.763071
    24  H    6.180095   6.401045   5.317890   7.514894   7.365224
    25  H    4.717324   6.457491   5.684249   7.063406   7.505909
    26  H    5.188548   5.351183   4.515721   6.236199   6.316214
    27  H    6.629530   4.586645   3.286740   6.207399   5.392334
    28  H    6.529519   4.558461   3.285337   6.143714   5.374397
                   16         17         18         19         20
    16  H    0.000000
    17  B    3.063960   0.000000
    18  N    4.517144   1.700490   0.000000
    19  C    5.477332   2.623630   1.483753   0.000000
    20  H    6.423851   3.594972   2.127454   1.092622   0.000000
    21  H    5.752127   2.799176   2.102015   1.089445   1.785946
    22  H    5.255194   2.805565   2.103305   1.088211   1.785949
    23  C    5.377226   2.618401   1.485539   2.427336   2.657469
    24  H    5.676983   2.809711   2.104446   2.660328   3.000623
    25  H    6.329025   3.590028   2.127072   2.669834   2.431327
    26  H    5.059913   2.781734   2.104268   3.367911   3.655039
    27  H    3.364841   1.211085   2.353599   3.362548   4.252733
    28  H    3.398488   1.211827   2.349958   2.579948   3.668862
                   21         22         23         24         25
    21  H    0.000000
    22  H    1.775599   0.000000
    23  C    2.672087   3.368358   0.000000
    24  H    2.439825   3.655272   1.089312   0.000000
    25  H    3.040498   3.656399   1.092651   1.787944   0.000000
    26  H    3.656192   4.185663   1.088532   1.775921   1.785590
    27  H    3.266762   3.796997   2.578119   2.465780   3.667251
    28  H    2.512216   2.462142   3.424907   3.392037   4.308477
                   26         27         28
    26  H    0.000000
    27  H    2.501823   0.000000
    28  H    3.833237   2.012019   0.000000
 Symmetry turned off by external request.
 Stoichiometry    C12H14BN
 Framework group  C1[X(C12H14BN)]
 Deg. of freedom    78
 Full point group                 C1      NOp   1
 Rotational constants (GHZ):           1.1104566           0.7186432           0.4795172
 General basis read from cards:  (5D, 7F)
 ======================================================================================================
                                       Pseudopotential Parameters
 ======================================================================================================
  Center     Atomic      Valence      Angular      Power
  Number     Number     Electrons     Momentum     of R      Exponent        Coefficient   SO-Coeffient
 ======================================================================================================
    1          6
                                   No pseudopotential on this center.
    2          6
                                   No pseudopotential on this center.
    3          6
                                   No pseudopotential on this center.
    4          6
                                   No pseudopotential on this center.
    5          6
                                   No pseudopotential on this center.
    6          6
                                   No pseudopotential on this center.
    7          1
                                   No pseudopotential on this center.
    8          6
                                   No pseudopotential on this center.
    9          6
                                   No pseudopotential on this center.
   10          1
                                   No pseudopotential on this center.
   11          1
                                   No pseudopotential on this center.
   12          6
                                   No pseudopotential on this center.
   13          6
                                   No pseudopotential on this center.
   14          1
                                   No pseudopotential on this center.
   15          1
                                   No pseudopotential on this center.
   16          1
                                   No pseudopotential on this center.
   17          5
                                   No pseudopotential on this center.
   18          7
                                   No pseudopotential on this center.
   19          6
                                   No pseudopotential on this center.
   20          1
                                   No pseudopotential on this center.
   21          1
                                   No pseudopotential on this center.
   22          1
                                   No pseudopotential on this center.
   23          6
                                   No pseudopotential on this center.
   24          1
                                   No pseudopotential on this center.
   25          1
                                   No pseudopotential on this center.
   26          1
                                   No pseudopotential on this center.
   27          1
                                   No pseudopotential on this center.
   28          1
                                   No pseudopotential on this center.
 ======================================================================================================
   406 basis functions,   630 primitive gaussians,   420 cartesian basis functions
    49 alpha electrons       49 beta electrons
       nuclear repulsion energy       853.1843211571 Hartrees.
 NAtoms=   28 NActive=   28 NUniq=   28 SFac= 1.00D+00 NAtFMM=   60 NAOKFM=F Big=F
 Integral buffers will be    131072 words long.
 Raffenetti 2 integral format.
 Two-electron integral symmetry is turned off.
 Nuclear repulsion after empirical dispersion term =      853.1624305994 Hartrees.
 ------------------------------------------------------------------------------
 Polarizable Continuum Model (PCM)
 =================================
 Model                : PCM.
 Atomic radii         : UFF (Universal Force Field).
 Polarization charges : Total charges.
 Charge compensation  : None.
 Solution method      : On-the-fly selection.
 Cavity type          : Scaled VdW (van der Waals Surface) (Alpha=1.100).
 Cavity algorithm     : GePol (No added spheres)
                        Default sphere list used, NSphG=   28.
                        Lebedev-Laikov grids with approx.  5.0 points / Ang**2.
                        Smoothing algorithm: York/Karplus (Gamma=1.0000).
                        Polarization charges: spherical gaussians, with
                                              point-specific exponents (IZeta= 3).
                        Self-potential: point-specific (ISelfS= 7).
                        Self-field    : sphere-specific E.n sum rule (ISelfD= 2).
 Solvent              : Toluene, Eps=   2.374100 Eps(inf)=   2.238315
 ------------------------------------------------------------------------------
 One-electron integrals computed using PRISM.
   1 Symmetry operations used in ECPInt.
 ECPInt:  NShTT=   11935 NPrTT=   39634 LenC2=   11534 LenP2D=   28368.
 LDataN:  DoStor=T MaxTD1= 4 Len=   56
 Number of processors reduced to 107 by ecpmxn.
 NBasis=   406 RedAO= T EigKep=  2.12D-06  NBF=   406
 NBsUse=   401 1.00D-06 EigRej=  9.06D-07 NBFU=   401
 ExpMin= 3.15D-02 ExpMax= 6.29D+03 ExpMxC= 9.49D+02 IAcc=3 IRadAn=         5 AccDes= 0.00D+00
 Harris functional with IExCor= 4639 and IRadAn=       5 diagonalized for initial guess.
 HarFok:  IExCor= 4639 AccDes= 0.00D+00 IRadAn=         5 IDoV= 1 UseB2=F ITyADJ=14
 ICtDFT=  3500011 ScaDFX=  1.000000  1.000000  1.000000  1.000000
 FoFCou: FMM=F IPFlag=           0 FMFlag=      100000 FMFlg1=           0
         NFxFlg=           0 DoJE=T BraDBF=F KetDBF=T FulRan=T
         wScrn=  0.000000 ICntrl=       500 IOpCl=  0 I1Cent=   200000004 NGrid=           0
         NMat0=    1 NMatS0=      1 NMatT0=    0 NMatD0=    1 NMtDS0=    0 NMtDT0=    0
 Symmetry not used in FoFCou.
 Requested convergence on RMS density matrix=1.00D-08 within 300 cycles.
 Requested convergence on MAX density matrix=1.00D-06.
 Requested convergence on             energy=1.00D-06.
 No special actions if energy rises.
 Inv3:  Mode=1 IEnd=    12000000.
 Iteration    1 A*A^-1 deviation from unit magnitude is 3.55D-15 for   1991.
 Iteration    1 A*A^-1 deviation from orthogonality  is 1.57D-15 for   1696   1068.
 Iteration    1 A^-1*A deviation from unit magnitude is 3.55D-15 for   1991.
 Iteration    1 A^-1*A deviation from orthogonality  is 1.67D-15 for   1259    670.
 Error on total polarization charges =  0.01017
 SCF Done:  E(RwB97XD) =  -545.277826660     A.U. after   15 cycles
            NFock= 15  Conv=0.42D-08     -V/T= 2.0045

 **********************************************************************

            Population analysis using the SCF Density.

 **********************************************************************

 Alpha  occ. eigenvalues --  -14.51746 -10.33435 -10.32679 -10.32678 -10.30281
 Alpha  occ. eigenvalues --  -10.30006 -10.29932 -10.29573 -10.28944 -10.28707
 Alpha  occ. eigenvalues --  -10.28392 -10.27717 -10.26482  -6.79717  -1.09028
 Alpha  occ. eigenvalues --   -0.98150  -0.92668  -0.88272  -0.84728  -0.83651
 Alpha  occ. eigenvalues --   -0.82164  -0.77477  -0.72474  -0.71122  -0.67775
 Alpha  occ. eigenvalues --   -0.64663  -0.60793  -0.60495  -0.57965  -0.57720
 Alpha  occ. eigenvalues --   -0.56709  -0.53657  -0.52292  -0.51273  -0.50456
 Alpha  occ. eigenvalues --   -0.49492  -0.49107  -0.48636  -0.47780  -0.46920
 Alpha  occ. eigenvalues --   -0.44375  -0.42265  -0.41906  -0.41122  -0.39101
 Alpha  occ. eigenvalues --   -0.36971  -0.35600  -0.32292  -0.28272
 Alpha virt. eigenvalues --    0.01696   0.03709   0.04211   0.04745   0.05148
 Alpha virt. eigenvalues --    0.05912   0.06312   0.06627   0.07364   0.08170
 Alpha virt. eigenvalues --    0.08282   0.08474   0.08793   0.09618   0.10210
 Alpha virt. eigenvalues --    0.10932   0.11409   0.11666   0.12390   0.12913
 Alpha virt. eigenvalues --    0.13326   0.13713   0.15052   0.15298   0.15367
 Alpha virt. eigenvalues --    0.16003   0.16163   0.16544   0.16870   0.17468
 Alpha virt. eigenvalues --    0.17776   0.17995   0.18166   0.18292   0.18556
 Alpha virt. eigenvalues --    0.18616   0.18921   0.19761   0.19902   0.20585
 Alpha virt. eigenvalues --    0.21045   0.21202   0.21323   0.21639   0.22285
 Alpha virt. eigenvalues --    0.22600   0.23176   0.23447   0.23860   0.23906
 Alpha virt. eigenvalues --    0.24457   0.24672   0.25759   0.26060   0.26148
 Alpha virt. eigenvalues --    0.26854   0.27153   0.27210   0.27939   0.28359
 Alpha virt. eigenvalues --    0.28640   0.29757   0.30072   0.30411   0.30965
 Alpha virt. eigenvalues --    0.31103   0.31789   0.32255   0.32594   0.33017
 Alpha virt. eigenvalues --    0.33159   0.33554   0.34046   0.34477   0.34756
 Alpha virt. eigenvalues --    0.36176   0.36555   0.36701   0.37257   0.37603
 Alpha virt. eigenvalues --    0.38183   0.38692   0.39248   0.39380   0.40553
 Alpha virt. eigenvalues --    0.41146   0.42513   0.43136   0.43701   0.44401
 Alpha virt. eigenvalues --    0.44557   0.45831   0.46354   0.49079   0.49678
 Alpha virt. eigenvalues --    0.50489   0.51516   0.55497   0.55964   0.56871
 Alpha virt. eigenvalues --    0.58422   0.59012   0.60011   0.61290   0.62535
 Alpha virt. eigenvalues --    0.63319   0.63861   0.64652   0.65438   0.65546
 Alpha virt. eigenvalues --    0.65934   0.66325   0.66968   0.67922   0.68388
 Alpha virt. eigenvalues --    0.69153   0.69760   0.71191   0.71263   0.71545
 Alpha virt. eigenvalues --    0.72265   0.72655   0.73745   0.74244   0.74812
 Alpha virt. eigenvalues --    0.75375   0.75947   0.76481   0.76829   0.78913
 Alpha virt. eigenvalues --    0.80117   0.80727   0.82205   0.82733   0.82837
 Alpha virt. eigenvalues --    0.84416   0.85393   0.85811   0.86515   0.87294
 Alpha virt. eigenvalues --    0.88732   0.89201   0.89687   0.92142   0.93410
 Alpha virt. eigenvalues --    0.94449   0.94544   0.95301   0.95422   0.96065
 Alpha virt. eigenvalues --    0.96977   0.99085   1.00182   1.00928   1.02073
 Alpha virt. eigenvalues --    1.02860   1.03412   1.03425   1.03842   1.07082
 Alpha virt. eigenvalues --    1.08830   1.10066   1.11716   1.12107   1.13513
 Alpha virt. eigenvalues --    1.15339   1.17323   1.18381   1.18633   1.18838
 Alpha virt. eigenvalues --    1.20172   1.21594   1.21907   1.22962   1.23865
 Alpha virt. eigenvalues --    1.25688   1.29936   1.32025   1.38259   1.40372
 Alpha virt. eigenvalues --    1.42687   1.43453   1.45785   1.47346   1.48116
 Alpha virt. eigenvalues --    1.52935   1.53769   1.53808   1.55821   1.57626
 Alpha virt. eigenvalues --    1.58657   1.59346   1.60011   1.60926   1.61476
 Alpha virt. eigenvalues --    1.63900   1.64463   1.64976   1.65667   1.66551
 Alpha virt. eigenvalues --    1.69158   1.71072   1.71688   1.71777   1.72916
 Alpha virt. eigenvalues --    1.73503   1.74225   1.76452   1.77767   1.78865
 Alpha virt. eigenvalues --    1.80193   1.81302   1.83284   1.83471   1.84145
 Alpha virt. eigenvalues --    1.84693   1.89014   1.90537   1.91896   1.93445
 Alpha virt. eigenvalues --    1.94862   1.95129   1.97427   1.98308   1.99414
 Alpha virt. eigenvalues --    1.99665   2.00824   2.01436   2.02375   2.03653
 Alpha virt. eigenvalues --    2.04249   2.04580   2.05731   2.07266   2.08401
 Alpha virt. eigenvalues --    2.08552   2.08954   2.10587   2.14862   2.16450
 Alpha virt. eigenvalues --    2.16770   2.18705   2.20834   2.22917   2.24433
 Alpha virt. eigenvalues --    2.25001   2.26362   2.27057   2.29088   2.29480
 Alpha virt. eigenvalues --    2.32025   2.35603   2.40510   2.41285   2.43354
 Alpha virt. eigenvalues --    2.44311   2.51561   2.52950   2.54640   2.55089
 Alpha virt. eigenvalues --    2.56117   2.57457   2.58381   2.59774   2.62218
 Alpha virt. eigenvalues --    2.63011   2.64048   2.65188   2.68668   2.70835
 Alpha virt. eigenvalues --    2.72481   2.74297   2.75502   2.77218   2.78632
 Alpha virt. eigenvalues --    2.79353   2.79689   2.80136   2.81115   2.81631
 Alpha virt. eigenvalues --    2.83501   2.84618   2.85197   2.85280   2.87261
 Alpha virt. eigenvalues --    2.88123   2.89484   2.90127   2.91985   2.92085
 Alpha virt. eigenvalues --    2.94087   2.94561   2.95922   2.97125   2.99654
 Alpha virt. eigenvalues --    3.01756   3.04975   3.05331   3.06617   3.08665
 Alpha virt. eigenvalues --    3.11857   3.11993   3.19933   3.23794   3.25030
 Alpha virt. eigenvalues --    3.25499   3.26786   3.33885   3.36212   3.45039
 Alpha virt. eigenvalues --    3.49370   3.50551   3.51997   3.55476   3.61942
 Alpha virt. eigenvalues --    3.62914   3.64009   3.65401   3.70744   3.73489
 Alpha virt. eigenvalues --    3.82996   3.83869   3.86690   3.87334   3.92293
 Alpha virt. eigenvalues --    3.93769   4.02092   4.12452   4.13855   4.16751
 Alpha virt. eigenvalues --    4.25147   4.27852   4.47165   4.57420   4.85960
 Alpha virt. eigenvalues --    4.91997   4.96209   4.98890  14.92104  23.67058
 Alpha virt. eigenvalues --   23.97314  24.04752  24.07228  24.09848  24.10323
 Alpha virt. eigenvalues --   24.13016  24.19914  24.26369  24.27401  24.32589
 Alpha virt. eigenvalues --   24.33122  35.69121
          Condensed to atoms (all electrons):
               1          2          3          4          5          6
     1  C    6.918831  -0.621345   0.508097  -0.329648  -0.706881   0.849100
     2  C   -0.621345  10.666129   1.815937   0.247550   0.574959  -1.121919
     3  C    0.508097   1.815937   8.759311   1.210970  -0.866010  -0.151206
     4  C   -0.329648   0.247550   1.210970   8.411008  -1.030479  -0.480600
     5  C   -0.706881   0.574959  -0.866010  -1.030479   7.396163   0.104372
     6  C    0.849100  -1.121919  -0.151206  -0.480600   0.104372   6.411512
     7  H    0.442447  -0.058423   0.015949   0.012968  -0.000609  -0.023704
     8  C   -0.585484  -1.597450  -1.686096   0.133181  -0.024521   0.133636
     9  C   -0.660378  -0.605219  -2.694628  -1.647617   1.275587  -0.022921
    10  H    0.018426   0.003694   0.028019  -0.049447   0.383349  -0.038994
    11  H   -0.088196   0.038981  -0.009399   0.002638   0.002141   0.383791
    12  C    0.026358   0.172910   0.617684  -0.486969  -0.036619  -0.263374
    13  C    0.195184  -0.598137  -1.191787   0.227083  -0.490918   0.178214
    14  H    0.000538  -0.023223  -0.025153  -0.078751   0.035610   0.031228
    15  H   -0.000947   0.000079   0.006337  -0.016591   0.004728  -0.000212
    16  H    0.008124   0.015902   0.078930  -0.000013  -0.016539   0.001830
    17  B    0.042382  -0.304190   0.051102  -0.032048   0.006032   0.051839
    18  N    0.029557  -1.167877  -0.351031  -0.104477  -0.120769   0.089527
    19  C    0.121576  -0.758477  -0.066389  -0.094465  -0.062336   0.094019
    20  H    0.059467  -0.155458  -0.006496  -0.007843  -0.001105   0.036964
    21  H   -0.013893   0.092333   0.001137   0.004057  -0.001656  -0.003275
    22  H   -0.015974   0.012190  -0.005100   0.005655   0.000912  -0.010466
    23  C    0.121258  -0.682488  -0.066412  -0.092758  -0.063583   0.096625
    24  H   -0.011275   0.089643   0.002283   0.004118  -0.001455  -0.000825
    25  H    0.043472  -0.130118  -0.008427  -0.004989  -0.000420   0.030290
    26  H   -0.005156  -0.000871  -0.003520   0.002494   0.000388  -0.008782
    27  H   -0.009716   0.005647  -0.023476   0.004649   0.002779  -0.007272
    28  H   -0.009844  -0.008058   0.000980  -0.000912   0.005368  -0.011343
               7          8          9         10         11         12
     1  C    0.442447  -0.585484  -0.660378   0.018426  -0.088196   0.026358
     2  C   -0.058423  -1.597450  -0.605219   0.003694   0.038981   0.172910
     3  C    0.015949  -1.686096  -2.694628   0.028019  -0.009399   0.617684
     4  C    0.012968   0.133181  -1.647617  -0.049447   0.002638  -0.486969
     5  C   -0.000609  -0.024521   1.275587   0.383349   0.002141  -0.036619
     6  C   -0.023704   0.133636  -0.022921  -0.038994   0.383791  -0.263374
     7  H    0.478042  -0.004405  -0.020320   0.002304  -0.007824   0.002977
     8  C   -0.004405   7.963957   1.402890  -0.012856  -0.009280  -0.664377
     9  C   -0.020320   1.402890   8.508708   0.022638   0.001585   0.247406
    10  H    0.002304  -0.012856   0.022638   0.458193  -0.010464   0.019431
    11  H   -0.007824  -0.009280   0.001585  -0.010464   0.450814  -0.000847
    12  C    0.002977  -0.664377   0.247406   0.019431  -0.000847   6.120257
    13  C    0.003454   0.667901  -0.106181  -0.007144  -0.000115   0.330194
    14  H   -0.000221   0.018320   0.418624   0.002347   0.000625  -0.059927
    15  H   -0.000044   0.019610  -0.028631   0.000042  -0.000090   0.410015
    16  H   -0.000041  -0.070621  -0.047595  -0.000128   0.000057  -0.048752
    17  B   -0.009696   0.284133   0.018437   0.000173   0.001541   0.022058
    18  N    0.002916   0.202493   0.003447  -0.003324   0.000268   0.021049
    19  C   -0.017318   0.006237  -0.005559  -0.002093   0.003095   0.006625
    20  H   -0.010082  -0.007010   0.001617  -0.000517   0.001881  -0.001175
    21  H    0.002243  -0.000357  -0.000617   0.000003  -0.000127   0.001632
    22  H    0.001141   0.017829   0.001745   0.000147  -0.000334   0.001033
    23  C   -0.015768  -0.009189  -0.010663  -0.001912   0.002899   0.009055
    24  H    0.002002  -0.002353  -0.000194   0.000011  -0.000105   0.000722
    25  H   -0.010027  -0.002034   0.002836  -0.000507   0.001443  -0.000831
    26  H    0.001405   0.017336  -0.001317   0.000153  -0.000319   0.001446
    27  H    0.000561  -0.104479   0.001626   0.000090  -0.000047   0.018618
    28  H    0.000754  -0.108151  -0.001168   0.000185  -0.000123   0.022025
              13         14         15         16         17         18
     1  C    0.195184   0.000538  -0.000947   0.008124   0.042382   0.029557
     2  C   -0.598137  -0.023223   0.000079   0.015902  -0.304190  -1.167877
     3  C   -1.191787  -0.025153   0.006337   0.078930   0.051102  -0.351031
     4  C    0.227083  -0.078751  -0.016591  -0.000013  -0.032048  -0.104477
     5  C   -0.490918   0.035610   0.004728  -0.016539   0.006032  -0.120769
     6  C    0.178214   0.031228  -0.000212   0.001830   0.051839   0.089527
     7  H    0.003454  -0.000221  -0.000044  -0.000041  -0.009696   0.002916
     8  C    0.667901   0.018320   0.019610  -0.070621   0.284133   0.202493
     9  C   -0.106181   0.418624  -0.028631  -0.047595   0.018437   0.003447
    10  H   -0.007144   0.002347   0.000042  -0.000128   0.000173  -0.003324
    11  H   -0.000115   0.000625  -0.000090   0.000057   0.001541   0.000268
    12  C    0.330194  -0.059927   0.410015  -0.048752   0.022058   0.021049
    13  C    6.758660   0.019784  -0.067785   0.398365   0.035622  -0.013304
    14  H    0.019784   0.464592  -0.009539   0.001659   0.001075   0.000291
    15  H   -0.067785  -0.009539   0.476654  -0.008458  -0.003371   0.001213
    16  H    0.398365   0.001659  -0.008458   0.478368  -0.021998  -0.005972
    17  B    0.035622   0.001075  -0.003371  -0.021998   4.490447   0.010610
    18  N   -0.013304   0.000291   0.001213  -0.005972   0.010610   7.673597
    19  C    0.010916   0.000292   0.000730  -0.002530  -0.086835   0.486593
    20  H   -0.002296   0.000024  -0.000011   0.000282   0.031553  -0.005517
    21  H    0.004121  -0.000024   0.000065  -0.000307  -0.020539  -0.053964
    22  H   -0.001108  -0.000075   0.000085  -0.000219  -0.047915  -0.017901
    23  C    0.014872   0.000233   0.000733  -0.002490  -0.058270   0.457784
    24  H    0.003424  -0.000009   0.000050  -0.000186  -0.015271  -0.047194
    25  H   -0.002515   0.000017  -0.000005   0.000206   0.033852  -0.003812
    26  H   -0.001104  -0.000028   0.000080  -0.000080  -0.065777  -0.010217
    27  H    0.058148  -0.000146   0.000398  -0.000047   0.383639  -0.074537
    28  H    0.037631  -0.000220   0.000477  -0.001030   0.382550  -0.072055
              19         20         21         22         23         24
     1  C    0.121576   0.059467  -0.013893  -0.015974   0.121258  -0.011275
     2  C   -0.758477  -0.155458   0.092333   0.012190  -0.682488   0.089643
     3  C   -0.066389  -0.006496   0.001137  -0.005100  -0.066412   0.002283
     4  C   -0.094465  -0.007843   0.004057   0.005655  -0.092758   0.004118
     5  C   -0.062336  -0.001105  -0.001656   0.000912  -0.063583  -0.001455
     6  C    0.094019   0.036964  -0.003275  -0.010466   0.096625  -0.000825
     7  H   -0.017318  -0.010082   0.002243   0.001141  -0.015768   0.002002
     8  C    0.006237  -0.007010  -0.000357   0.017829  -0.009189  -0.002353
     9  C   -0.005559   0.001617  -0.000617   0.001745  -0.010663  -0.000194
    10  H   -0.002093  -0.000517   0.000003   0.000147  -0.001912   0.000011
    11  H    0.003095   0.001881  -0.000127  -0.000334   0.002899  -0.000105
    12  C    0.006625  -0.001175   0.001632   0.001033   0.009055   0.000722
    13  C    0.010916  -0.002296   0.004121  -0.001108   0.014872   0.003424
    14  H    0.000292   0.000024  -0.000024  -0.000075   0.000233  -0.000009
    15  H    0.000730  -0.000011   0.000065   0.000085   0.000733   0.000050
    16  H   -0.002530   0.000282  -0.000307  -0.000219  -0.002490  -0.000186
    17  B   -0.086835   0.031553  -0.020539  -0.047915  -0.058270  -0.015271
    18  N    0.486593  -0.005517  -0.053964  -0.017901   0.457784  -0.047194
    19  C    5.519415   0.410413   0.382426   0.410658  -0.050517  -0.030569
    20  H    0.410413   0.564971  -0.038615  -0.037885   0.004328   0.002282
    21  H    0.382426  -0.038615   0.487185  -0.018817  -0.031048  -0.015234
    22  H    0.410658  -0.037885  -0.018817   0.466463   0.008079   0.002638
    23  C   -0.050517   0.004328  -0.031048   0.008079   5.485023   0.373871
    24  H   -0.030569   0.002282  -0.015234   0.002638   0.373871   0.487238
    25  H   -0.007374   0.003813   0.000573   0.000802   0.412824  -0.037621
    26  H    0.013375   0.000146   0.003742  -0.004530   0.413489  -0.018814
    27  H    0.004844  -0.000915   0.006949  -0.000817   0.006523   0.004332
    28  H    0.013423  -0.004044   0.008601   0.002830   0.006428   0.005325
              25         26         27         28
     1  C    0.043472  -0.005156  -0.009716  -0.009844
     2  C   -0.130118  -0.000871   0.005647  -0.008058
     3  C   -0.008427  -0.003520  -0.023476   0.000980
     4  C   -0.004989   0.002494   0.004649  -0.000912
     5  C   -0.000420   0.000388   0.002779   0.005368
     6  C    0.030290  -0.008782  -0.007272  -0.011343
     7  H   -0.010027   0.001405   0.000561   0.000754
     8  C   -0.002034   0.017336  -0.104479  -0.108151
     9  C    0.002836  -0.001317   0.001626  -0.001168
    10  H   -0.000507   0.000153   0.000090   0.000185
    11  H    0.001443  -0.000319  -0.000047  -0.000123
    12  C   -0.000831   0.001446   0.018618   0.022025
    13  C   -0.002515  -0.001104   0.058148   0.037631
    14  H    0.000017  -0.000028  -0.000146  -0.000220
    15  H   -0.000005   0.000080   0.000398   0.000477
    16  H    0.000206  -0.000080  -0.000047  -0.001030
    17  B    0.033852  -0.065777   0.383639   0.382550
    18  N   -0.003812  -0.010217  -0.074537  -0.072055
    19  C   -0.007374   0.013375   0.004844   0.013423
    20  H    0.003813   0.000146  -0.000915  -0.004044
    21  H    0.000573   0.003742   0.006949   0.008601
    22  H    0.000802  -0.004530  -0.000817   0.002830
    23  C    0.412824   0.413489   0.006523   0.006428
    24  H   -0.037621  -0.018814   0.004332   0.005325
    25  H    0.553290  -0.038882  -0.003245  -0.002058
    26  H   -0.038882   0.472267   0.004011   0.001713
    27  H   -0.003245   0.004011   0.748761   0.010240
    28  H   -0.002058   0.001713   0.010240   0.753523
 Mulliken charges:
               1
     1  C   -0.326079
     2  C    0.097297
     3  C    0.058397
     4  C    0.191239
     5  C   -0.368488
     6  C   -0.348055
     7  H    0.209319
     8  C    0.021142
     9  C   -0.054135
    10  H    0.188182
    11  H    0.235514
    12  C   -0.488626
    13  C   -0.461178
    14  H    0.202058
    15  H    0.214386
    16  H    0.243283
    17  B   -0.181135
    18  N    0.072606
    19  C   -0.300176
    20  H    0.161229
    21  H    0.203406
    22  H    0.228934
    23  C   -0.328926
    24  H    0.203166
    25  H    0.169449
    26  H    0.227352
    27  H   -0.037116
    28  H   -0.033042
 Sum of Mulliken charges =  -0.00000
 Mulliken charges with hydrogens summed into heavy atoms:
               1
     1  C   -0.116760
     2  C    0.097297
     3  C    0.058397
     4  C    0.191239
     5  C   -0.180307
     6  C   -0.112541
     8  C    0.021142
     9  C    0.147923
    12  C   -0.274240
    13  C   -0.217896
    17  B   -0.251293
    18  N    0.072606
    19  C    0.293392
    23  C    0.271041
 Electronic spatial extent (au):  <R**2>=           6578.7435
 Charge=             -0.0000 electrons
 Dipole moment (field-independent basis, Debye):
    X=             -3.9594    Y=             -2.5582    Z=              0.2063  Tot=              4.7185
 Quadrupole moment (field-independent basis, Debye-Ang):
   XX=            -58.3750   YY=            -68.9548   ZZ=            -87.2648
   XY=             14.3933   XZ=             -0.8580   YZ=              0.3630
 Traceless Quadrupole moment (field-independent basis, Debye-Ang):
   XX=             13.1566   YY=              2.5767   ZZ=            -15.7333
   XY=             14.3933   XZ=             -0.8580   YZ=              0.3630
 Octapole moment (field-independent basis, Debye-Ang**2):
  XXX=            701.9879  YYY=             -9.5613  ZZZ=             14.5211  XYY=            222.9777
  XXY=            -48.2439  XXZ=             12.7279  XZZ=            294.8615  YZZ=            -11.9002
  YYZ=              5.8064  XYZ=             -5.5685
 Hexadecapole moment (field-independent basis, Debye-Ang**3):
 XXXX=          -6084.0755 YYYY=          -1721.8071 ZZZZ=           -282.0698 XXXY=            121.9258
 XXXZ=            -61.6544 YYYX=             18.5239 YYYZ=            -21.3069 ZZZX=             27.2036
 ZZZY=            -24.8119 XXYY=          -1229.5586 XXZZ=          -1285.8818 YYZZ=           -373.3244
 XXYZ=             19.4091 YYXZ=             -2.0884 ZZXY=             32.6491
 N-N= 8.531624305994D+02 E-N=-2.970789927706D+03  KE= 5.428356359623D+02
 Breneman (CHELPG) radii used.
 Generate Potential Derived Charges using the Breneman model, NDens= 1.
 Grid spacing= 0.300 Box extension= 2.800
 NStep X,Y,Z=   44     45     34   Total possible points=       67320
 Number of Points to Fit=   16435

 **********************************************************************

            Electrostatic Properties Using The SCF Density.

 **********************************************************************

       Atomic Center    1 is at  -5.416282 -0.787926  0.185525
       Atomic Center    2 is at  -4.062535 -0.764722  0.008523
       Atomic Center    3 is at  -3.344612  0.438806 -0.044194
       Atomic Center    4 is at  -4.003277  1.677889  0.078508
       Atomic Center    5 is at  -5.410614  1.650456  0.262969
       Atomic Center    6 is at  -6.086353  0.455703  0.315883
       Atomic Center    7 is at  -5.980475 -1.712883  0.225895
       Atomic Center    8 is at  -1.949491  0.280590 -0.224597
       Atomic Center    9 is at  -3.191207  2.837037  0.006420
       Atomic Center   10 is at  -5.953485  2.584736  0.363236
       Atomic Center   11 is at  -7.161038  0.454127  0.458431
       Atomic Center   12 is at  -1.834647  2.703504 -0.174761
       Atomic Center   13 is at  -1.207161  1.436314 -0.289875
       Atomic Center   14 is at  -3.643597  3.819226  0.094346
       Atomic Center   15 is at  -1.220398  3.596797 -0.229477
       Atomic Center   16 is at  -0.130856  1.397836 -0.426645
       Atomic Center   17 is at  -1.608828 -1.282124 -0.280823
       Atomic Center   18 is at  -3.178526 -1.926157 -0.167094
       Atomic Center   19 is at  -3.286121 -2.849586  0.989290
       Atomic Center   20 is at  -4.294891 -3.264491  1.053010
       Atomic Center   21 is at  -2.562620 -3.653747  0.859823
       Atomic Center   22 is at  -3.052507 -2.299841  1.898910
       Atomic Center   23 is at  -3.533331 -2.646564 -1.416875
       Atomic Center   24 is at  -2.830196 -3.466487 -1.558044
       Atomic Center   25 is at  -4.552981 -3.034112 -1.353578
       Atomic Center   26 is at  -3.451159 -1.954950 -2.253427
       Atomic Center   27 is at  -1.144004 -1.682523 -1.325020
       Atomic Center   28 is at  -0.999444 -1.695175  0.681759
   16435 points will be used for fitting atomic charges
 Fitting point charges to electrostatic potential
 Charges from ESP fit, RMS=   0.00421 RRMS=   0.22927:
 ESP charges:
               1
     1  C   -0.240285
     2  C    0.096554
     3  C    0.007052
     4  C    0.228278
     5  C   -0.281042
     6  C   -0.057585
     7  H    0.165559
     8  C   -0.125000
     9  C   -0.294432
    10  H    0.147247
    11  H    0.103133
    12  C   -0.036682
    13  C   -0.163614
    14  H    0.133441
    15  H    0.091579
    16  H    0.100548
    17  B    0.362866
    18  N    0.036639
    19  C   -0.126792
    20  H    0.064584
    21  H    0.098563
    22  H    0.072669
    23  C   -0.085057
    24  H    0.093481
    25  H    0.054431
    26  H    0.055159
    27  H   -0.251325
    28  H   -0.249969
 Sum of ESP charges =   0.00000
 ESP charges with hydrogens summed into heavy atoms:
               1
     1  C   -0.074726
     2  C    0.096554
     3  C    0.007052
     4  C    0.228278
     5  C   -0.133795
     6  C    0.045548
     8  C   -0.125000
     9  C   -0.160991
    12  C    0.054897
    13  C   -0.063066
    17  B   -0.138428
    18  N    0.036639
    19  C    0.109023
    23  C    0.118014
 Charge=   0.00000 Dipole=    -3.9662    -2.4377     0.2180 Tot=     4.6606
 -----------------------------------------------------------------

              Electrostatic Properties (Atomic Units)

 -----------------------------------------------------------------
    Center     Electric         -------- Electric Field --------
               Potential          X             Y             Z
 -----------------------------------------------------------------
    1 Atom    -14.755486
    2 Atom    -14.728769
    3 Atom    -14.781215
    4 Atom    -14.768347
    5 Atom    -14.768621
    6 Atom    -14.761657
    7 Atom     -1.075708
    8 Atom    -14.810002
    9 Atom    -14.784557
   10 Atom     -1.099885
   11 Atom     -1.095371
   12 Atom    -14.783885
   13 Atom    -14.795297
   14 Atom     -1.111048
   15 Atom     -1.117772
   16 Atom     -1.131500
   17 Atom    -11.515270
   18 Atom    -18.306769
   19 Atom    -14.724664
   20 Atom     -1.081955
   21 Atom     -1.086595
   22 Atom     -1.090649
   23 Atom    -14.724930
   24 Atom     -1.086807
   25 Atom     -1.082626
   26 Atom     -1.090880
   27 Atom     -1.210845
   28 Atom     -1.211287
 -----------------------------------------------------------------
 Unable to Open any file for archive entry.
 1\1\GINC-IRENE6090\SP\RwB97XD\GenECP\C12H14B1N1\PENASFRA\10-Apr-2024\0
 \\# wb97xd/genecp scrf=(solvent=toluene,pcm) nosymm pop=(chelpg) scfcy
 c=300\\h_naphthalene_chelpg\\0,1\C,0,-5.416282,-0.787926,0.185525\C,0,
 -4.062535,-0.764722,0.008523\C,0,-3.344612,0.438806,-0.044194\C,0,-4.0
 03277,1.677889,0.078508\C,0,-5.410614,1.650456,0.262969\C,0,-6.086353,
 0.455703,0.315883\H,0,-5.980475,-1.712883,0.225895\C,0,-1.949491,0.280
 59,-0.224597\C,0,-3.191207,2.837037,0.00642\H,0,-5.953485,2.584736,0.3
 63236\H,0,-7.161038,0.454127,0.458431\C,0,-1.834647,2.703504,-0.174761
 \C,0,-1.207161,1.436314,-0.289875\H,0,-3.643597,3.819226,0.094346\H,0,
 -1.220398,3.596797,-0.229477\H,0,-0.130856,1.397836,-0.426645\B,0,-1.6
 08828,-1.282124,-0.280823\N,0,-3.178526,-1.926157,-0.167094\C,0,-3.286
 121,-2.849586,0.98929\H,0,-4.294891,-3.264491,1.05301\H,0,-2.56262,-3.
 653747,0.859823\H,0,-3.052507,-2.299841,1.89891\C,0,-3.533331,-2.64656
 4,-1.416875\H,0,-2.830196,-3.466487,-1.558044\H,0,-4.552981,-3.034112,
 -1.353578\H,0,-3.451159,-1.95495,-2.253427\H,0,-1.144004,-1.682523,-1.
 32502\H,0,-0.999444,-1.695175,0.681759\\Version=AS64L-G16RevC.02\HF=-5
 45.2778267\RMSD=4.217e-09\Dipole=-1.5577502,-1.0064687,0.0811644\Quadr
 upole=9.7815893,1.9157318,-11.6973211,10.7010358,-0.6378921,0.2698899\
 PG=C01 [X(C12H14B1N1)]\\@
 The archive entry for this job was punched.


 CHARLIE BROWN.."I CAN'T GET THAT STUPID KITE IN THE
 AIR... I CAN'T... I C A N N O T..."
 LUCY.."OH COME NOW CHARLIE BROWN...THAT'S NO WAY TO TALK...
 THE TROUBLE WITH YOU IS YOU DON'T BELIEVE IN YOURSELF... YOU
 DON'T BELIEVE IN YOUR OWN ABILITIES...  YOU'VE GOT TO SAY TO
 YOURSELF...'I BELIEVE I CAN FLY THIS KITE.'... GO AHEAD SAY
 IT...."
 CHARLIE BROWN.."I BELIEVE THAT I CAN FLY THIS STUPID
 KITE.....I BELIEVE THAT I CAN FLY THIS KITE........
 I  A C T U A L L Y  B E L I E V E  T H A T  I  C A N ******"
 LUCY.."I'LL BET YOU TEN-TO-ONE YOU'RE WRONG......."    SCHULZ
 Job cpu time:       0 days  0 hours 50 minutes 56.0 seconds.
 Elapsed time:       0 days  0 hours  0 minutes 32.0 seconds.
 File lengths (MBytes):  RWF=    156 Int=      0 D2E=      0 Chk=     11 Scr=      1
 Normal termination of Gaussian 16 at Wed Apr 10 16:46:37 2024.
