 Entering Gaussian System, Link 0=/ccc/products/gaussian-16-C.02/system/default/g16/g16
 Input=h_nmeimidazole_chelpg.gjf
 Output=h_nmeimidazole_chelpg.log
 Initial command:
 /ccc/products/gaussian-16-C.02/system/default/g16/l1.exe "/ccc/scratch/cont003/gen7343/penasfra/flp/b-n_flp/h_nmeimidazole/Reactant/Gau-1086409.inp" -scrdir="/ccc/scratch/cont003/gen7343/penasfra/flp/b-n_flp/h_nmeimidazole/Reactant/"
 Entering Link 1 = /ccc/products/gaussian-16-C.02/system/default/g16/l1.exe PID=   1086458.
  
 Copyright (c) 1988-2021, Gaussian, Inc.  All Rights Reserved.
  
 This is part of the Gaussian(R) 16 program.  It is based on
 the Gaussian(R) 09 system (copyright 2009, Gaussian, Inc.),
 the Gaussian(R) 03 system (copyright 2003, Gaussian, Inc.),
 the Gaussian(R) 98 system (copyright 1998, Gaussian, Inc.),
 the Gaussian(R) 94 system (copyright 1995, Gaussian, Inc.),
 the Gaussian 92(TM) system (copyright 1992, Gaussian, Inc.),
 the Gaussian 90(TM) system (copyright 1990, Gaussian, Inc.),
 the Gaussian 88(TM) system (copyright 1988, Gaussian, Inc.),
 the Gaussian 86(TM) system (copyright 1986, Carnegie Mellon
 University), and the Gaussian 82(TM) system (copyright 1983,
 Carnegie Mellon University). Gaussian is a federally registered
 trademark of Gaussian, Inc.
  
 This software contains proprietary and confidential information,
 including trade secrets, belonging to Gaussian, Inc.
  
 This software is provided under written license and may be
 used, copied, transmitted, or stored only in accord with that
 written license.
  
 The following legend is applicable only to US Government
 contracts under FAR:
  
                    RESTRICTED RIGHTS LEGEND
  
 Use, reproduction and disclosure by the US Government is
 subject to restrictions as set forth in subparagraphs (a)
 and (c) of the Commercial Computer Software - Restricted
 Rights clause in FAR 52.227-19.
  
 Gaussian, Inc.
 340 Quinnipiac St., Bldg. 40, Wallingford CT 06492
  
  
 ---------------------------------------------------------------
 Warning -- This program may not be used in any manner that
 competes with the business of Gaussian, Inc. or will provide
 assistance to any competitor of Gaussian, Inc.  The licensee
 of this program is prohibited from giving any competitor of
 Gaussian, Inc. access to this program.  By using this program,
 the user acknowledges that Gaussian, Inc. is engaged in the
 business of creating and licensing software in the field of
 computational chemistry and represents and warrants to the
 licensee that it is not a competitor of Gaussian, Inc. and that
 it will not use this program in any manner prohibited above.
 ---------------------------------------------------------------
  

 Cite this work as:
 Gaussian 16, Revision C.02,
 M. J. Frisch, G. W. Trucks, H. B. Schlegel, G. E. Scuseria, 
 M. A. Robb, J. R. Cheeseman, G. Scalmani, V. Barone, 
 G. A. Petersson, H. Nakatsuji, X. Li, M. Caricato, A. V. Marenich, 
 J. Bloino, B. G. Janesko, R. Gomperts, B. Mennucci, H. P. Hratchian, 
 J. V. Ortiz, A. F. Izmaylov, J. L. Sonnenberg, D. Williams-Young, 
 F. Ding, F. Lipparini, F. Egidi, J. Goings, B. Peng, A. Petrone, 
 T. Henderson, D. Ranasinghe, V. G. Zakrzewski, J. Gao, N. Rega, 
 G. Zheng, W. Liang, M. Hada, M. Ehara, K. Toyota, R. Fukuda, 
 J. Hasegawa, M. Ishida, T. Nakajima, Y. Honda, O. Kitao, H. Nakai, 
 T. Vreven, K. Throssell, J. A. Montgomery, Jr., J. E. Peralta, 
 F. Ogliaro, M. J. Bearpark, J. J. Heyd, E. N. Brothers, K. N. Kudin, 
 V. N. Staroverov, T. A. Keith, R. Kobayashi, J. Normand, 
 K. Raghavachari, A. P. Rendell, J. C. Burant, S. S. Iyengar, 
 J. Tomasi, M. Cossi, J. M. Millam, M. Klene, C. Adamo, R. Cammi, 
 J. W. Ochterski, R. L. Martin, K. Morokuma, O. Farkas, 
 J. B. Foresman, and D. J. Fox, Gaussian, Inc., Wallingford CT, 2019.
 
 ******************************************
 Gaussian 16:  AS64L-G16RevC.02  7-Dec-2021
                 8-Apr-2024 
 ******************************************
 %nprocshared=128
 Will use up to  128 processors via shared memory.
 %mem=30GB
 %chk=h_nmeimidazole_chelpg.chk
 ----------------------------------------------------------------------
 # wb97xd/genecp scrf=(solvent=toluene,pcm) nosymm pop=(chelpg) scfcyc=
 300
 ----------------------------------------------------------------------
 1/38=1,172=1/1;
 2/12=2,15=1,17=6,18=5,40=1/2;
 3/5=7,11=2,16=1,17=8,25=1,30=1,70=2201,72=13,74=-58/1,2,3;
 4//1;
 5/5=2,7=300,38=5,53=13/2;
 6/7=2,8=2,9=2,10=2,15=8,20=3,28=1/1,2;
 99/5=1,9=1/99;
 ---------------------
 h_nmeimidazole_chelpg
 ---------------------
 Symbolic Z-matrix:
 Charge =  0 Multiplicity = 1
 C                     2.68231   1.64168   1.0826 
 H                     2.80935   2.19636   1.9998 
 C                     3.1249    0.38001   0.71807 
 N                     1.99832   2.14795   0.02842 
 N                     2.69205   0.12876  -0.58617 
 B                     3.93987  -0.57457   1.57402 
 C                     1.32868   3.43485  -0.04438 
 H                     1.00669   3.60675  -1.07062 
 H                     0.45542   3.44873   0.60949 
 H                     2.01546   4.22998   0.24655 
 H                     4.25165  -0.24155   2.68194 
 H                     4.26972  -1.64421   1.15772 
 C                     2.03501   1.18846  -0.95241 
 H                     1.55647   1.347    -1.909 
 
                          Input orientation:                          
 ---------------------------------------------------------------------
 Center     Atomic      Atomic             Coordinates (Angstroms)
 Number     Number       Type             X           Y           Z
 ---------------------------------------------------------------------
      1          6           0        2.682311    1.641679    1.082596
      2          1           0        2.809351    2.196358    1.999801
      3          6           0        3.124899    0.380012    0.718073
      4          7           0        1.998324    2.147952    0.028423
      5          7           0        2.692048    0.128761   -0.586170
      6          5           0        3.939873   -0.574572    1.574023
      7          6           0        1.328677    3.434851   -0.044376
      8          1           0        1.006695    3.606754   -1.070615
      9          1           0        0.455417    3.448727    0.609485
     10          1           0        2.015462    4.229977    0.246546
     11          1           0        4.251647   -0.241551    2.681943
     12          1           0        4.269718   -1.644206    1.157723
     13          6           0        2.035008    1.188463   -0.952414
     14          1           0        1.556474    1.347002   -1.908997
 ---------------------------------------------------------------------
                    Distance matrix (angstroms):
                    1          2          3          4          5
     1  C    0.000000
     2  H    1.079385   0.000000
     3  C    1.385844   2.245331   0.000000
     4  N    1.354781   2.132238   2.206898   0.000000
     5  N    2.252509   3.312999   1.396974   2.221736   0.000000
     6  B    2.595136   3.022817   1.519231   3.683833   2.591945
     7  C    2.513535   2.811569   3.624884   1.452527   3.616981
     8  H    3.362369   3.829653   4.254181   2.078296   3.895066
     9  H    2.906598   3.007060   4.068776   2.100050   4.177832
    10  H    2.800527   2.799959   4.034280   2.093490   4.239240
    11  H    2.926992   2.913578   2.347911   4.222364   3.640061
    12  H    3.650006   4.194246   2.366719   4.562347   2.945101
    13  C    2.183042   3.214192   2.152204   1.372591   1.299540
    14  H    3.209980   4.191636   3.208820   2.142510   2.126855
                    6          7          8          9         10
     6  B    0.000000
     7  C    5.051043   0.000000
     8  H    5.751620   1.089215   0.000000
     9  H    5.409131   1.091013   1.775279   0.000000
    10  H    5.343149   1.090199   1.772267   1.782082   0.000000
    11  H    1.198162   5.430700   6.278603   5.685472   5.561137
    12  H    1.194245   5.990959   6.571559   6.386503   6.357510
    13  C    3.622111   2.523826   2.630500   3.169137   3.269357
    14  H    4.637291   2.808526   2.472169   3.460105   3.628854
                   11         12         13         14
    11  H    0.000000
    12  H    2.071476   0.000000
    13  C    4.490766   4.179787   0.000000
    14  H    5.555555   5.070877   1.081286   0.000000
 Symmetry turned off by external request.
 Stoichiometry    C4H7BN2
 Framework group  C1[X(C4H7BN2)]
 Deg. of freedom    36
 Full point group                 C1      NOp   1
 Rotational constants (GHZ):           7.2107255           2.1337958           1.6639447
 General basis read from cards:  (5D, 7F)
 ======================================================================================================
                                       Pseudopotential Parameters
 ======================================================================================================
  Center     Atomic      Valence      Angular      Power
  Number     Number     Electrons     Momentum     of R      Exponent        Coefficient   SO-Coeffient
 ======================================================================================================
    1          6
                                   No pseudopotential on this center.
    2          1
                                   No pseudopotential on this center.
    3          6
                                   No pseudopotential on this center.
    4          7
                                   No pseudopotential on this center.
    5          7
                                   No pseudopotential on this center.
    6          5
                                   No pseudopotential on this center.
    7          6
                                   No pseudopotential on this center.
    8          1
                                   No pseudopotential on this center.
    9          1
                                   No pseudopotential on this center.
   10          1
                                   No pseudopotential on this center.
   11          1
                                   No pseudopotential on this center.
   12          1
                                   No pseudopotential on this center.
   13          6
                                   No pseudopotential on this center.
   14          1
                                   No pseudopotential on this center.
 ======================================================================================================
   203 basis functions,   315 primitive gaussians,   210 cartesian basis functions
    25 alpha electrons       25 beta electrons
       nuclear repulsion energy       272.7371212972 Hartrees.
 NAtoms=   14 NActive=   14 NUniq=   14 SFac= 1.00D+00 NAtFMM=   60 NAOKFM=F Big=F
 Integral buffers will be    131072 words long.
 Raffenetti 2 integral format.
 Two-electron integral symmetry is turned off.
 Nuclear repulsion after empirical dispersion term =      272.7312538342 Hartrees.
 ------------------------------------------------------------------------------
 Polarizable Continuum Model (PCM)
 =================================
 Model                : PCM.
 Atomic radii         : UFF (Universal Force Field).
 Polarization charges : Total charges.
 Charge compensation  : None.
 Solution method      : On-the-fly selection.
 Cavity type          : Scaled VdW (van der Waals Surface) (Alpha=1.100).
 Cavity algorithm     : GePol (No added spheres)
                        Default sphere list used, NSphG=   14.
                        Lebedev-Laikov grids with approx.  5.0 points / Ang**2.
                        Smoothing algorithm: York/Karplus (Gamma=1.0000).
                        Polarization charges: spherical gaussians, with
                                              point-specific exponents (IZeta= 3).
                        Self-potential: point-specific (ISelfS= 7).
                        Self-field    : sphere-specific E.n sum rule (ISelfD= 2).
 Solvent              : Toluene, Eps=   2.374100 Eps(inf)=   2.238315
 ------------------------------------------------------------------------------
 Spheres list:
 ISph  on   Nord     Re0    Alpha      Xe            Ye            Ze
    1   C      1    1.9255  1.100      2.682311      1.641679      1.082596
    2   H      2    1.4430  1.100      2.809351      2.196358      1.999801
    3   C      3    1.9255  1.100      3.124899      0.380012      0.718073
    4   N      4    1.8300  1.100      1.998324      2.147952      0.028423
    5   N      5    1.8300  1.100      2.692048      0.128761     -0.586170
    6   B      6    2.0415  1.100      3.939873     -0.574572      1.574023
    7   C      7    1.9255  1.100      1.328677      3.434851     -0.044376
    8   H      8    1.4430  1.100      1.006695      3.606754     -1.070615
    9   H      9    1.4430  1.100      0.455417      3.448727      0.609485
   10   H     10    1.4430  1.100      2.015462      4.229977      0.246546
   11   H     11    1.4430  1.100      4.251647     -0.241551      2.681943
   12   H     12    1.4430  1.100      4.269718     -1.644206      1.157723
   13   C     13    1.9255  1.100      2.035008      1.188463     -0.952414
   14   H     14    1.4430  1.100      1.556474      1.347002     -1.908997
 ------------------------------------------------------------------------------
 One-electron integrals computed using PRISM.
   1 Symmetry operations used in ECPInt.
 ECPInt:  NShTT=    3003 NPrTT=   10017 LenC2=    2976 LenP2D=    7932.
 LDataN:  DoStor=T MaxTD1= 4 Len=   56
 NBasis=   203 RedAO= T EigKep=  1.14D-05  NBF=   203
 NBsUse=   203 1.00D-06 EigRej= -1.00D+00 NBFU=   203
 ExpMin= 3.15D-02 ExpMax= 6.29D+03 ExpMxC= 9.49D+02 IAcc=3 IRadAn=         5 AccDes= 0.00D+00
 Harris functional with IExCor= 4639 and IRadAn=       5 diagonalized for initial guess.
 HarFok:  IExCor= 4639 AccDes= 0.00D+00 IRadAn=         5 IDoV= 1 UseB2=F ITyADJ=14
 ICtDFT=  3500011 ScaDFX=  1.000000  1.000000  1.000000  1.000000
 FoFCou: FMM=F IPFlag=           0 FMFlag=      100000 FMFlg1=           0
         NFxFlg=           0 DoJE=T BraDBF=F KetDBF=T FulRan=T
         wScrn=  0.000000 ICntrl=       500 IOpCl=  0 I1Cent=   200000004 NGrid=           0
         NMat0=    1 NMatS0=      1 NMatT0=    0 NMatD0=    1 NMtDS0=    0 NMtDT0=    0
 Symmetry not used in FoFCou.
 Requested convergence on RMS density matrix=1.00D-08 within 300 cycles.
 Requested convergence on MAX density matrix=1.00D-06.
 Requested convergence on             energy=1.00D-06.
 No special actions if energy rises.
 Inv3:  Mode=1 IEnd=     4876875.
 Iteration    1 A*A^-1 deviation from unit magnitude is 3.11D-15 for   1261.
 Iteration    1 A*A^-1 deviation from orthogonality  is 1.53D-15 for   1259    392.
 Iteration    1 A^-1*A deviation from unit magnitude is 2.89D-15 for   1261.
 Iteration    1 A^-1*A deviation from orthogonality  is 1.36D-15 for    795    257.
 Error on total polarization charges =  0.00908
 SCF Done:  E(RwB97XD) =  -290.952883107     A.U. after   14 cycles
            NFock= 14  Conv=0.65D-08     -V/T= 2.0042

 **********************************************************************

            Population analysis using the SCF Density.

 **********************************************************************

 Alpha  occ. eigenvalues --  -14.50974 -14.42193 -10.34611 -10.34050 -10.33014
 Alpha  occ. eigenvalues --  -10.28554  -6.83790  -1.13971  -0.99931  -0.86639
 Alpha  occ. eigenvalues --   -0.82310  -0.70857  -0.67986  -0.63947  -0.57878
 Alpha  occ. eigenvalues --   -0.56801  -0.53599  -0.52797  -0.50687  -0.49827
 Alpha  occ. eigenvalues --   -0.43220  -0.41039  -0.36777  -0.36281  -0.32773
 Alpha virt. eigenvalues --    0.01081   0.03717   0.05445   0.05878   0.06288
 Alpha virt. eigenvalues --    0.07708   0.08116   0.09149   0.09370   0.09497
 Alpha virt. eigenvalues --    0.10207   0.11388   0.12671   0.12870   0.14196
 Alpha virt. eigenvalues --    0.15479   0.16039   0.16202   0.16824   0.17199
 Alpha virt. eigenvalues --    0.17977   0.18248   0.18498   0.19009   0.21207
 Alpha virt. eigenvalues --    0.21501   0.21563   0.22135   0.23298   0.24084
 Alpha virt. eigenvalues --    0.25138   0.26111   0.26395   0.27005   0.29652
 Alpha virt. eigenvalues --    0.29794   0.30295   0.30525   0.32364   0.32984
 Alpha virt. eigenvalues --    0.33798   0.34623   0.35205   0.35668   0.36557
 Alpha virt. eigenvalues --    0.38847   0.39747   0.41084   0.47376   0.49754
 Alpha virt. eigenvalues --    0.50733   0.51490   0.52575   0.53537   0.55223
 Alpha virt. eigenvalues --    0.58752   0.59765   0.63218   0.63659   0.65743
 Alpha virt. eigenvalues --    0.66223   0.69095   0.69549   0.70546   0.71749
 Alpha virt. eigenvalues --    0.72216   0.73965   0.75148   0.77321   0.81735
 Alpha virt. eigenvalues --    0.82709   0.83210   0.86362   0.87080   0.89393
 Alpha virt. eigenvalues --    0.91865   0.94673   0.95176   0.99437   0.99674
 Alpha virt. eigenvalues --    0.99805   1.01427   1.05050   1.07509   1.09328
 Alpha virt. eigenvalues --    1.10410   1.15693   1.20888   1.23974   1.24055
 Alpha virt. eigenvalues --    1.24582   1.29898   1.35284   1.36296   1.42806
 Alpha virt. eigenvalues --    1.46038   1.47372   1.50458   1.52473   1.60242
 Alpha virt. eigenvalues --    1.63265   1.63576   1.64688   1.69064   1.71389
 Alpha virt. eigenvalues --    1.72022   1.74776   1.76233   1.77424   1.78656
 Alpha virt. eigenvalues --    1.81343   1.82321   1.89384   1.90386   1.92212
 Alpha virt. eigenvalues --    1.98330   2.00470   2.02739   2.09927   2.10827
 Alpha virt. eigenvalues --    2.12980   2.15209   2.18811   2.20118   2.23546
 Alpha virt. eigenvalues --    2.24175   2.31241   2.32258   2.36854   2.48217
 Alpha virt. eigenvalues --    2.50582   2.53778   2.54997   2.57527   2.59013
 Alpha virt. eigenvalues --    2.60415   2.65432   2.67688   2.68994   2.71461
 Alpha virt. eigenvalues --    2.73099   2.76762   2.81442   2.83309   2.87724
 Alpha virt. eigenvalues --    2.89381   2.92147   2.92933   2.97238   2.99390
 Alpha virt. eigenvalues --    3.04337   3.06135   3.08244   3.12851   3.22083
 Alpha virt. eigenvalues --    3.25041   3.47825   3.63969   3.69263   3.73568
 Alpha virt. eigenvalues --    3.81800   3.85709   3.88719   3.97831   4.03024
 Alpha virt. eigenvalues --    4.04724   4.18176   4.60147   4.88359   5.08283
 Alpha virt. eigenvalues --    5.36835  14.77762  23.91520  24.04744  24.07605
 Alpha virt. eigenvalues --   24.22619  35.62864  35.82313
          Condensed to atoms (all electrons):
               1          2          3          4          5          6
     1  C    5.862442   0.411481  -0.146247   0.301921   0.081393   0.032374
     2  H    0.411481   0.451039  -0.025438  -0.073497   0.003596  -0.018090
     3  C   -0.146247  -0.025438   6.104743  -0.177219   0.194080   0.253550
     4  N    0.301921  -0.073497  -0.177219   6.752531  -0.001351   0.019448
     5  N    0.081393   0.003596   0.194080  -0.001351   6.659607  -0.066886
     6  B    0.032374  -0.018090   0.253550   0.019448  -0.066886   3.903725
     7  C   -0.068456  -0.011351  -0.020321   0.210832   0.019522   0.008627
     8  H    0.005153   0.000278  -0.010351  -0.056860   0.005018   0.001114
     9  H   -0.011806  -0.001317   0.004849  -0.031116   0.000029  -0.000510
    10  H   -0.006284  -0.003830   0.009526  -0.035083  -0.000420   0.000187
    11  H    0.089157   0.002860  -0.188072  -0.004595   0.007198   0.482683
    12  H   -0.042504  -0.003652  -0.010292   0.000390  -0.008631   0.475619
    13  C   -0.306736   0.031665   0.089705   0.158677   0.318768  -0.024754
    14  H    0.027748   0.002949   0.020190  -0.096994  -0.053469  -0.002994
               7          8          9         10         11         12
     1  C   -0.068456   0.005153  -0.011806  -0.006284   0.089157  -0.042504
     2  H   -0.011351   0.000278  -0.001317  -0.003830   0.002860  -0.003652
     3  C   -0.020321  -0.010351   0.004849   0.009526  -0.188072  -0.010292
     4  N    0.210832  -0.056860  -0.031116  -0.035083  -0.004595   0.000390
     5  N    0.019522   0.005018   0.000029  -0.000420   0.007198  -0.008631
     6  B    0.008627   0.001114  -0.000510   0.000187   0.482683   0.475619
     7  C    5.129383   0.422026   0.396957   0.412868  -0.000051   0.000686
     8  H    0.422026   0.519518  -0.028866  -0.026972   0.000118  -0.000162
     9  H    0.396957  -0.028866   0.518377  -0.047285  -0.000199   0.000037
    10  H    0.412868  -0.026972  -0.047285   0.516922  -0.000209   0.000093
    11  H   -0.000051   0.000118  -0.000199  -0.000209   0.627935  -0.002696
    12  H    0.000686  -0.000162   0.000037   0.000093  -0.002696   0.648014
    13  C   -0.093759   0.010087  -0.011958  -0.013699  -0.009263  -0.001076
    14  H   -0.015794  -0.002350  -0.000133  -0.000866  -0.000109  -0.000120
              13         14
     1  C   -0.306736   0.027748
     2  H    0.031665   0.002949
     3  C    0.089705   0.020190
     4  N    0.158677  -0.096994
     5  N    0.318768  -0.053469
     6  B   -0.024754  -0.002994
     7  C   -0.093759  -0.015794
     8  H    0.010087  -0.002350
     9  H   -0.011958  -0.000133
    10  H   -0.013699  -0.000866
    11  H   -0.009263  -0.000109
    12  H   -0.001076  -0.000120
    13  C    5.475316   0.438079
    14  H    0.438079   0.456750
 Mulliken charges:
               1
     1  C   -0.229637
     2  H    0.233306
     3  C   -0.098702
     4  N    0.032914
     5  N   -0.158455
     6  B   -0.064093
     7  C   -0.391169
     8  H    0.162247
     9  H    0.212940
    10  H    0.195052
    11  H   -0.004757
    12  H   -0.055707
    13  C   -0.061051
    14  H    0.227113
 Sum of Mulliken charges =  -0.00000
 Mulliken charges with hydrogens summed into heavy atoms:
               1
     1  C    0.003669
     3  C   -0.098702
     4  N    0.032914
     5  N   -0.158455
     6  B   -0.124557
     7  C    0.179070
    13  C    0.166061
 Electronic spatial extent (au):  <R**2>=           2151.1975
 Charge=             -0.0000 electrons
 Dipole moment (field-independent basis, Debye):
    X=             -2.7627    Y=              5.9039    Z=              0.1510  Tot=              6.5200
 Quadrupole moment (field-independent basis, Debye-Ang):
   XX=            -56.3048   YY=            -28.2138   ZZ=            -41.8269
   XY=             10.4847   XZ=              1.0932   YZ=              0.1182
 Traceless Quadrupole moment (field-independent basis, Debye-Ang):
   XX=            -14.1897   YY=             13.9014   ZZ=              0.2883
   XY=             10.4847   XZ=              1.0932   YZ=              0.1182
 Octapole moment (field-independent basis, Debye-Ang**2):
  XXX=           -384.2152  YYY=            -98.6060  ZZZ=            -47.4988  XYY=            -91.2315
  XXY=            -27.4681  XXZ=            -13.0680  XZZ=           -115.7598  YZZ=            -39.7894
  YYZ=            -11.2215  XYZ=              4.7919
 Hexadecapole moment (field-independent basis, Debye-Ang**3):
 XXXX=          -2156.4131 YYYY=           -730.6143 ZZZZ=           -315.2370 XXXY=           -187.1594
 XXXZ=           -202.5589 YYYX=           -161.9367 YYYZ=             18.9549 ZZZX=           -201.7515
 ZZZY=             11.9146 XXYY=           -457.6167 XXZZ=           -419.1740 YYZZ=           -184.2038
 XXYZ=             27.4358 YYXZ=            -50.6423 ZZXY=            -57.5172
 N-N= 2.727312538342D+02 E-N=-1.221359136496D+03  KE= 2.897367813725D+02
 Breneman (CHELPG) radii used.
 Generate Potential Derived Charges using the Breneman model, NDens= 1.
 Grid spacing= 0.300 Box extension= 2.800
 NStep X,Y,Z=   33     40     35   Total possible points=       46200
 Number of Points to Fit=   10789

 **********************************************************************

            Electrostatic Properties Using The SCF Density.

 **********************************************************************

       Atomic Center    1 is at   2.682311  1.641679  1.082596
       Atomic Center    2 is at   2.809351  2.196358  1.999801
       Atomic Center    3 is at   3.124899  0.380012  0.718073
       Atomic Center    4 is at   1.998324  2.147952  0.028423
       Atomic Center    5 is at   2.692048  0.128761 -0.586170
       Atomic Center    6 is at   3.939873 -0.574572  1.574023
       Atomic Center    7 is at   1.328677  3.434851 -0.044376
       Atomic Center    8 is at   1.006695  3.606754 -1.070615
       Atomic Center    9 is at   0.455417  3.448727  0.609485
       Atomic Center   10 is at   2.015462  4.229977  0.246546
       Atomic Center   11 is at   4.251647 -0.241551  2.681943
       Atomic Center   12 is at   4.269718 -1.644206  1.157723
       Atomic Center   13 is at   2.035008  1.188463 -0.952414
       Atomic Center   14 is at   1.556474  1.347002 -1.908997
   10789 points will be used for fitting atomic charges
 Fitting point charges to electrostatic potential
 Charges from ESP fit, RMS=   0.00391 RRMS=   0.15016:
 ESP charges:
               1
     1  C   -0.330146
     2  H    0.197165
     3  C    0.156964
     4  N    0.212779
     5  N   -0.637846
     6  B    0.387226
     7  C   -0.341109
     8  H    0.121532
     9  H    0.144580
    10  H    0.148424
    11  H   -0.203509
    12  H   -0.166858
    13  C    0.217356
    14  H    0.093442
 Sum of ESP charges =   0.00000
 ESP charges with hydrogens summed into heavy atoms:
               1
     1  C   -0.132981
     3  C    0.156964
     4  N    0.212779
     5  N   -0.637846
     6  B    0.016860
     7  C    0.073427
    13  C    0.310797
 Charge=   0.00000 Dipole=    -2.7054     5.7828     0.1172 Tot=     6.3854
 -----------------------------------------------------------------

              Electrostatic Properties (Atomic Units)

 -----------------------------------------------------------------
    Center     Electric         -------- Electric Field --------
               Potential          X             Y             Z
 -----------------------------------------------------------------
    1 Atom    -14.730957
    2 Atom     -1.058912
    3 Atom    -14.785476
    4 Atom    -18.310321
    5 Atom    -18.428936
    6 Atom    -11.486871
    7 Atom    -14.699313
    8 Atom     -1.060172
    9 Atom     -1.067995
   10 Atom     -1.065238
   11 Atom     -1.174012
   12 Atom     -1.183944
   13 Atom    -14.717353
   14 Atom     -1.066879
 -----------------------------------------------------------------
 Unable to Open any file for archive entry.
 1\1\GINC-IRENE5267\SP\RwB97XD\GenECP\C4H7B1N2\PENASFRA\08-Apr-2024\0\\
 # wb97xd/genecp scrf=(solvent=toluene,pcm) nosymm pop=(chelpg) scfcyc=
 300\\h_nmeimidazole_chelpg\\0,1\C,0,2.682311,1.641679,1.082596\H,0,2.8
 09351,2.196358,1.999801\C,0,3.124899,0.380012,0.718073\N,0,1.998324,2.
 147952,0.028423\N,0,2.692048,0.128761,-0.58617\B,0,3.939873,-0.574572,
 1.574023\C,0,1.328677,3.434851,-0.044376\H,0,1.006695,3.606754,-1.0706
 15\H,0,0.455417,3.448727,0.609485\H,0,2.015462,4.229977,0.246546\H,0,4
 .251647,-0.241551,2.681943\H,0,4.269718,-1.644206,1.157723\C,0,2.03500
 8,1.188463,-0.952414\H,0,1.556474,1.347002,-1.908997\\Version=AS64L-G1
 6RevC.02\HF=-290.9528831\RMSD=6.479e-09\Dipole=-1.0869243,2.3227637,0.
 0594043\Quadrupole=-10.5496609,10.3353422,0.2143187,7.7951447,0.812789
 6,0.0878693\PG=C01 [X(C4H7B1N2)]\\@
 The archive entry for this job was punched.


 Sorry, no quote for you today!
 Job cpu time:       0 days  0 hours 17 minutes 29.1 seconds.
 Elapsed time:       0 days  0 hours  0 minutes 10.6 seconds.
 File lengths (MBytes):  RWF=     52 Int=      0 D2E=      0 Chk=      4 Scr=      1
 Normal termination of Gaussian 16 at Mon Apr  8 17:55:42 2024.
