 Entering Gaussian System, Link 0=/ccc/products/gaussian-16-C.02/system/default/g16/g16
 Input=h_quinoline_chelpg.gjf
 Output=h_quinoline_chelpg.log
 Initial command:
 /ccc/products/gaussian-16-C.02/system/default/g16/l1.exe "/ccc/scratch/cont003/gen7343/penasfra/flp/b-n_flp/h_quinoline/reac/Gau-135663.inp" -scrdir="/ccc/scratch/cont003/gen7343/penasfra/flp/b-n_flp/h_quinoline/reac/"
 Entering Link 1 = /ccc/products/gaussian-16-C.02/system/default/g16/l1.exe PID=    135712.
  
 Copyright (c) 1988-2021, Gaussian, Inc.  All Rights Reserved.
  
 This is part of the Gaussian(R) 16 program.  It is based on
 the Gaussian(R) 09 system (copyright 2009, Gaussian, Inc.),
 the Gaussian(R) 03 system (copyright 2003, Gaussian, Inc.),
 the Gaussian(R) 98 system (copyright 1998, Gaussian, Inc.),
 the Gaussian(R) 94 system (copyright 1995, Gaussian, Inc.),
 the Gaussian 92(TM) system (copyright 1992, Gaussian, Inc.),
 the Gaussian 90(TM) system (copyright 1990, Gaussian, Inc.),
 the Gaussian 88(TM) system (copyright 1988, Gaussian, Inc.),
 the Gaussian 86(TM) system (copyright 1986, Carnegie Mellon
 University), and the Gaussian 82(TM) system (copyright 1983,
 Carnegie Mellon University). Gaussian is a federally registered
 trademark of Gaussian, Inc.
  
 This software contains proprietary and confidential information,
 including trade secrets, belonging to Gaussian, Inc.
  
 This software is provided under written license and may be
 used, copied, transmitted, or stored only in accord with that
 written license.
  
 The following legend is applicable only to US Government
 contracts under FAR:
  
                    RESTRICTED RIGHTS LEGEND
  
 Use, reproduction and disclosure by the US Government is
 subject to restrictions as set forth in subparagraphs (a)
 and (c) of the Commercial Computer Software - Restricted
 Rights clause in FAR 52.227-19.
  
 Gaussian, Inc.
 340 Quinnipiac St., Bldg. 40, Wallingford CT 06492
  
  
 ---------------------------------------------------------------
 Warning -- This program may not be used in any manner that
 competes with the business of Gaussian, Inc. or will provide
 assistance to any competitor of Gaussian, Inc.  The licensee
 of this program is prohibited from giving any competitor of
 Gaussian, Inc. access to this program.  By using this program,
 the user acknowledges that Gaussian, Inc. is engaged in the
 business of creating and licensing software in the field of
 computational chemistry and represents and warrants to the
 licensee that it is not a competitor of Gaussian, Inc. and that
 it will not use this program in any manner prohibited above.
 ---------------------------------------------------------------
  

 Cite this work as:
 Gaussian 16, Revision C.02,
 M. J. Frisch, G. W. Trucks, H. B. Schlegel, G. E. Scuseria, 
 M. A. Robb, J. R. Cheeseman, G. Scalmani, V. Barone, 
 G. A. Petersson, H. Nakatsuji, X. Li, M. Caricato, A. V. Marenich, 
 J. Bloino, B. G. Janesko, R. Gomperts, B. Mennucci, H. P. Hratchian, 
 J. V. Ortiz, A. F. Izmaylov, J. L. Sonnenberg, D. Williams-Young, 
 F. Ding, F. Lipparini, F. Egidi, J. Goings, B. Peng, A. Petrone, 
 T. Henderson, D. Ranasinghe, V. G. Zakrzewski, J. Gao, N. Rega, 
 G. Zheng, W. Liang, M. Hada, M. Ehara, K. Toyota, R. Fukuda, 
 J. Hasegawa, M. Ishida, T. Nakajima, Y. Honda, O. Kitao, H. Nakai, 
 T. Vreven, K. Throssell, J. A. Montgomery, Jr., J. E. Peralta, 
 F. Ogliaro, M. J. Bearpark, J. J. Heyd, E. N. Brothers, K. N. Kudin, 
 V. N. Staroverov, T. A. Keith, R. Kobayashi, J. Normand, 
 K. Raghavachari, A. P. Rendell, J. C. Burant, S. S. Iyengar, 
 J. Tomasi, M. Cossi, J. M. Millam, M. Klene, C. Adamo, R. Cammi, 
 J. W. Ochterski, R. L. Martin, K. Morokuma, O. Farkas, 
 J. B. Foresman, and D. J. Fox, Gaussian, Inc., Wallingford CT, 2019.
 
 ******************************************
 Gaussian 16:  AS64L-G16RevC.02  7-Dec-2021
                10-Apr-2024 
 ******************************************
 %nprocshared=128
 Will use up to  128 processors via shared memory.
 %mem=30GB
 %chk=h_quinoline_chelpg.chk
 ----------------------------------------------------------------------
 # wb97xd/genecp scrf=(solvent=toluene,pcm) nosymm pop=(chelpg) scfcyc=
 300
 ----------------------------------------------------------------------
 1/38=1,172=1/1;
 2/12=2,15=1,17=6,18=5,40=1/2;
 3/5=7,11=2,16=1,17=8,25=1,30=1,70=2201,72=13,74=-58/1,2,3;
 4//1;
 5/5=2,7=300,38=5,53=13/2;
 6/7=2,8=2,9=2,10=2,15=8,20=3,28=1/1,2;
 99/5=1,9=1/99;
 ------------------
 h_quinoline_chelpg
 ------------------
 Symbolic Z-matrix:
 Charge =  0 Multiplicity = 1
 C                    -4.00065   0.05183   0.21461 
 C                    -2.62702   0.05773   0.03074 
 C                    -1.96964   1.33327  -0.07121 
 C                    -2.73585   2.52639   0.01853 
 C                    -4.13879   2.44789   0.20742 
 C                    -4.7627    1.23471   0.30425 
 H                    -4.51005  -0.90326   0.29296 
 C                    -2.06292   3.7663   -0.08537 
 H                    -4.70835   3.36975   0.27339 
 H                    -5.83529   1.17861   0.44857 
 C                    -0.7093    3.77705  -0.26764 
 C                    -0.03555   2.53817  -0.34468 
 H                    -2.63015   4.68925  -0.01901 
 H                    -0.15286   4.70225  -0.35268 
 H                     1.04216   2.52512  -0.48985 
 N                    -0.6218    1.36967  -0.2529 
 B                    -1.88715  -1.29604  -0.05204 
 H                    -0.70941  -1.37815  -0.20029 
 H                    -2.5438   -2.29428   0.04026 
 
                          Input orientation:                          
 ---------------------------------------------------------------------
 Center     Atomic      Atomic             Coordinates (Angstroms)
 Number     Number       Type             X           Y           Z
 ---------------------------------------------------------------------
      1          6           0       -4.000652    0.051829    0.214610
      2          6           0       -2.627021    0.057731    0.030741
      3          6           0       -1.969639    1.333271   -0.071205
      4          6           0       -2.735846    2.526388    0.018531
      5          6           0       -4.138785    2.447893    0.207417
      6          6           0       -4.762698    1.234710    0.304252
      7          1           0       -4.510048   -0.903264    0.292959
      8          6           0       -2.062920    3.766303   -0.085369
      9          1           0       -4.708346    3.369753    0.273394
     10          1           0       -5.835285    1.178613    0.448566
     11          6           0       -0.709300    3.777053   -0.267642
     12          6           0       -0.035548    2.538169   -0.344682
     13          1           0       -2.630152    4.689248   -0.019010
     14          1           0       -0.152862    4.702246   -0.352684
     15          1           0        1.042156    2.525119   -0.489852
     16          7           0       -0.621800    1.369668   -0.252895
     17          5           0       -1.887154   -1.296043   -0.052039
     18          1           0       -0.709408   -1.378145   -0.200289
     19          1           0       -2.543798   -2.294278    0.040258
 ---------------------------------------------------------------------
                    Distance matrix (angstroms):
                    1          2          3          4          5
     1  C    0.000000
     2  C    1.385895   0.000000
     3  C    2.418429   1.438592   0.000000
     4  C    2.785969   2.471085   1.420793   0.000000
     5  C    2.400053   2.833641   2.454630   1.417772   0.000000
     6  C    1.409949   2.453814   2.819904   2.420371   1.367647
     7  H    1.085277   2.130272   3.404171   3.871126   3.372745
     8  C    4.200251   3.753025   2.434861   1.414572   2.476519
     9  H    3.393067   3.919220   3.430237   2.160318   1.085624
    10  H    2.165700   3.424020   3.903498   3.407044   2.132449
    11  C    4.994283   4.195240   2.756649   2.398530   3.708600
    12  C    4.713464   3.606833   2.295055   2.724642   4.141198
    13  H    4.841333   4.631785   3.420758   2.165766   2.711257
    14  H    6.062482   5.276362   3.837955   3.397641   4.613394
    15  H    5.660684   4.452177   3.265988   3.812054   5.228221
    16  N    3.656761   2.412994   1.360517   2.425049   3.707242
    17  B    2.520860   1.544979   2.630677   3.916151   4.376553
    18  H    3.612375   2.406731   2.992762   4.404510   5.154165
    19  H    2.767136   2.353500   3.674397   4.824539   5.006008
                    6          7          8          9         10
     6  C    0.000000
     7  H    2.152880   0.000000
     8  C    3.721501   5.285492   0.000000
     9  H    2.135958   4.277660   2.698933   0.000000
    10  H    1.083705   2.472788   4.605645   2.470176   0.000000
    11  C    4.818776   6.055190   1.365879   4.055981   5.791422
    12  C    4.946319   5.680774   2.384490   4.786292   6.009541
    13  H    4.072602   5.908259   1.085349   2.479003   4.776616
    14  H    5.805683   7.129072   2.143774   4.787478   6.734087
    15  H    5.999341   6.572182   3.368329   5.862101   7.070566
    16  N    4.180390   4.536810   2.801562   4.580085   5.263932
    17  B    3.847130   2.674485   5.065506   5.462113   4.686392
    18  H    4.848787   3.861822   5.320766   6.225626   5.764776
    19  H    4.176957   2.421759   6.080927   6.068020   4.802247
                   11         12         13         14         15
    11  C    0.000000
    12  C    1.412342   0.000000
    13  H    2.140932   3.386026   0.000000
    14  H    1.082976   2.167269   2.499695   0.000000
    15  H    2.164328   1.087516   4.288472   2.487321   0.000000
    16  N    2.409020   1.310538   3.886874   3.366888   2.039599
    17  B    5.212497   4.267935   6.031322   6.251210   4.834647
    18  H    5.155638   3.976487   6.366740   6.107710   4.288041
    19  H    6.349901   5.458209   6.984311   7.404210   6.030478
                   16         17         18         19
    16  N    0.000000
    17  B    2.957614   0.000000
    18  H    2.749713   1.189876   0.000000
    19  H    4.147833   1.198404   2.064497   0.000000
 Symmetry turned off by external request.
 Stoichiometry    C9H8BN
 Framework group  C1[X(C9H8BN)]
 Deg. of freedom    51
 Full point group                 C1      NOp   1
 Rotational constants (GHZ):           1.9869607           1.1750135           0.7383700
 General basis read from cards:  (5D, 7F)
 ======================================================================================================
                                       Pseudopotential Parameters
 ======================================================================================================
  Center     Atomic      Valence      Angular      Power
  Number     Number     Electrons     Momentum     of R      Exponent        Coefficient   SO-Coeffient
 ======================================================================================================
    1          6
                                   No pseudopotential on this center.
    2          6
                                   No pseudopotential on this center.
    3          6
                                   No pseudopotential on this center.
    4          6
                                   No pseudopotential on this center.
    5          6
                                   No pseudopotential on this center.
    6          6
                                   No pseudopotential on this center.
    7          1
                                   No pseudopotential on this center.
    8          6
                                   No pseudopotential on this center.
    9          1
                                   No pseudopotential on this center.
   10          1
                                   No pseudopotential on this center.
   11          6
                                   No pseudopotential on this center.
   12          6
                                   No pseudopotential on this center.
   13          1
                                   No pseudopotential on this center.
   14          1
                                   No pseudopotential on this center.
   15          1
                                   No pseudopotential on this center.
   16          7
                                   No pseudopotential on this center.
   17          5
                                   No pseudopotential on this center.
   18          1
                                   No pseudopotential on this center.
   19          1
                                   No pseudopotential on this center.
 ======================================================================================================
   298 basis functions,   468 primitive gaussians,   309 cartesian basis functions
    37 alpha electrons       37 beta electrons
       nuclear repulsion energy       526.2900649649 Hartrees.
 NAtoms=   19 NActive=   19 NUniq=   19 SFac= 1.00D+00 NAtFMM=   60 NAOKFM=F Big=F
 Integral buffers will be    131072 words long.
 Raffenetti 2 integral format.
 Two-electron integral symmetry is turned off.
 Nuclear repulsion after empirical dispersion term =      526.2798551405 Hartrees.
 ------------------------------------------------------------------------------
 Polarizable Continuum Model (PCM)
 =================================
 Model                : PCM.
 Atomic radii         : UFF (Universal Force Field).
 Polarization charges : Total charges.
 Charge compensation  : None.
 Solution method      : On-the-fly selection.
 Cavity type          : Scaled VdW (van der Waals Surface) (Alpha=1.100).
 Cavity algorithm     : GePol (No added spheres)
                        Default sphere list used, NSphG=   19.
                        Lebedev-Laikov grids with approx.  5.0 points / Ang**2.
                        Smoothing algorithm: York/Karplus (Gamma=1.0000).
                        Polarization charges: spherical gaussians, with
                                              point-specific exponents (IZeta= 3).
                        Self-potential: point-specific (ISelfS= 7).
                        Self-field    : sphere-specific E.n sum rule (ISelfD= 2).
 Solvent              : Toluene, Eps=   2.374100 Eps(inf)=   2.238315
 ------------------------------------------------------------------------------
 Spheres list:
 ISph  on   Nord     Re0    Alpha      Xe            Ye            Ze
    1   C      1    1.9255  1.100     -4.000652      0.051829      0.214610
    2   C      2    1.9255  1.100     -2.627021      0.057731      0.030741
    3   C      3    1.9255  1.100     -1.969639      1.333271     -0.071205
    4   C      4    1.9255  1.100     -2.735846      2.526388      0.018531
    5   C      5    1.9255  1.100     -4.138785      2.447893      0.207417
    6   C      6    1.9255  1.100     -4.762698      1.234710      0.304252
    7   H      7    1.4430  1.100     -4.510048     -0.903264      0.292959
    8   C      8    1.9255  1.100     -2.062920      3.766303     -0.085369
    9   H      9    1.4430  1.100     -4.708346      3.369753      0.273394
   10   H     10    1.4430  1.100     -5.835285      1.178613      0.448566
   11   C     11    1.9255  1.100     -0.709300      3.777053     -0.267642
   12   C     12    1.9255  1.100     -0.035548      2.538169     -0.344682
   13   H     13    1.4430  1.100     -2.630152      4.689248     -0.019010
   14   H     14    1.4430  1.100     -0.152862      4.702246     -0.352684
   15   H     15    1.4430  1.100      1.042156      2.525119     -0.489852
   16   N     16    1.8300  1.100     -0.621800      1.369668     -0.252895
   17   B     17    2.0415  1.100     -1.887154     -1.296043     -0.052039
   18   H     18    1.4430  1.100     -0.709408     -1.378145     -0.200289
   19   H     19    1.4430  1.100     -2.543798     -2.294278      0.040258
 ------------------------------------------------------------------------------
 One-electron integrals computed using PRISM.
   1 Symmetry operations used in ECPInt.
 ECPInt:  NShTT=    5671 NPrTT=   20122 LenC2=    5533 LenP2D=   14660.
 LDataN:  DoStor=T MaxTD1= 4 Len=   56
 NBasis=   298 RedAO= T EigKep=  1.16D-06  NBF=   298
 NBsUse=   297 1.00D-06 EigRej=  2.68D-07 NBFU=   297
 ExpMin= 3.15D-02 ExpMax= 6.29D+03 ExpMxC= 9.49D+02 IAcc=3 IRadAn=         5 AccDes= 0.00D+00
 Harris functional with IExCor= 4639 and IRadAn=       5 diagonalized for initial guess.
 HarFok:  IExCor= 4639 AccDes= 0.00D+00 IRadAn=         5 IDoV= 1 UseB2=F ITyADJ=14
 ICtDFT=  3500011 ScaDFX=  1.000000  1.000000  1.000000  1.000000
 FoFCou: FMM=F IPFlag=           0 FMFlag=      100000 FMFlg1=           0
         NFxFlg=           0 DoJE=T BraDBF=F KetDBF=T FulRan=T
         wScrn=  0.000000 ICntrl=       500 IOpCl=  0 I1Cent=   200000004 NGrid=           0
         NMat0=    1 NMatS0=      1 NMatT0=    0 NMatD0=    1 NMtDS0=    0 NMtDT0=    0
 Symmetry not used in FoFCou.
 Requested convergence on RMS density matrix=1.00D-08 within 300 cycles.
 Requested convergence on MAX density matrix=1.00D-06.
 Requested convergence on             energy=1.00D-06.
 No special actions if energy rises.
 Inv3:  Mode=1 IEnd=     8127948.
 Iteration    1 A*A^-1 deviation from unit magnitude is 6.00D-15 for   1641.
 Iteration    1 A*A^-1 deviation from orthogonality  is 1.54D-15 for   1642    474.
 Iteration    1 A^-1*A deviation from unit magnitude is 6.00D-15 for   1641.
 Iteration    1 A^-1*A deviation from orthogonality  is 1.47D-15 for   1632   1471.
 Error on total polarization charges =  0.00873
 SCF Done:  E(RwB97XD) =  -427.314353814     A.U. after   17 cycles
            NFock= 17  Conv=0.62D-08     -V/T= 2.0043

 **********************************************************************

            Population analysis using the SCF Density.

 **********************************************************************

 Alpha  occ. eigenvalues --  -14.43525 -10.33752 -10.33238 -10.31627 -10.31381
 Alpha  occ. eigenvalues --  -10.31271 -10.30914 -10.30338 -10.30184 -10.28105
 Alpha  occ. eigenvalues --   -6.84495  -1.06007  -0.96610  -0.92084  -0.86464
 Alpha  occ. eigenvalues --   -0.85291  -0.75078  -0.73701  -0.71166  -0.63174
 Alpha  occ. eigenvalues --   -0.62243  -0.60994  -0.57216  -0.55571  -0.52790
 Alpha  occ. eigenvalues --   -0.51729  -0.51029  -0.50004  -0.48565  -0.44502
 Alpha  occ. eigenvalues --   -0.44459  -0.41793  -0.40839  -0.40263  -0.34433
 Alpha  occ. eigenvalues --   -0.33774  -0.32412
 Alpha virt. eigenvalues --   -0.02330   0.02238   0.03395   0.03829   0.04677
 Alpha virt. eigenvalues --    0.05454   0.06522   0.06802   0.07813   0.08420
 Alpha virt. eigenvalues --    0.08617   0.09194   0.09877   0.11522   0.12544
 Alpha virt. eigenvalues --    0.12551   0.13209   0.13436   0.14130   0.14405
 Alpha virt. eigenvalues --    0.14850   0.15970   0.16517   0.16639   0.16988
 Alpha virt. eigenvalues --    0.17438   0.17960   0.18072   0.18425   0.18718
 Alpha virt. eigenvalues --    0.19349   0.19874   0.19996   0.21070   0.21821
 Alpha virt. eigenvalues --    0.21965   0.22426   0.23453   0.24006   0.25015
 Alpha virt. eigenvalues --    0.25315   0.25848   0.26123   0.26453   0.27198
 Alpha virt. eigenvalues --    0.28375   0.28556   0.28745   0.29170   0.30632
 Alpha virt. eigenvalues --    0.30746   0.31479   0.31758   0.32037   0.32528
 Alpha virt. eigenvalues --    0.33590   0.34223   0.35028   0.35369   0.35860
 Alpha virt. eigenvalues --    0.36172   0.37137   0.37542   0.38052   0.39617
 Alpha virt. eigenvalues --    0.40115   0.40714   0.41379   0.42507   0.44525
 Alpha virt. eigenvalues --    0.46521   0.47100   0.47785   0.52302   0.55974
 Alpha virt. eigenvalues --    0.56580   0.57493   0.58151   0.60665   0.60891
 Alpha virt. eigenvalues --    0.62374   0.62919   0.63755   0.63892   0.64245
 Alpha virt. eigenvalues --    0.66045   0.66892   0.67301   0.67574   0.68672
 Alpha virt. eigenvalues --    0.69741   0.69987   0.71920   0.72019   0.73663
 Alpha virt. eigenvalues --    0.74335   0.74505   0.77496   0.79513   0.80328
 Alpha virt. eigenvalues --    0.81313   0.83427   0.84237   0.86145   0.86950
 Alpha virt. eigenvalues --    0.87031   0.89380   0.90200   0.92344   0.93336
 Alpha virt. eigenvalues --    0.93556   0.93735   0.95921   0.96250   0.97863
 Alpha virt. eigenvalues --    0.98562   0.99811   1.00204   1.01391   1.01555
 Alpha virt. eigenvalues --    1.02437   1.05198   1.05793   1.06756   1.10173
 Alpha virt. eigenvalues --    1.11100   1.12875   1.13951   1.15737   1.17064
 Alpha virt. eigenvalues --    1.17895   1.20229   1.20511   1.21798   1.26446
 Alpha virt. eigenvalues --    1.30896   1.32891   1.34774   1.36251   1.39116
 Alpha virt. eigenvalues --    1.44155   1.46087   1.51770   1.54923   1.57303
 Alpha virt. eigenvalues --    1.58270   1.61203   1.62811   1.63984   1.64239
 Alpha virt. eigenvalues --    1.66310   1.67133   1.70139   1.70493   1.71756
 Alpha virt. eigenvalues --    1.76414   1.77273   1.79267   1.79601   1.80076
 Alpha virt. eigenvalues --    1.81735   1.82103   1.82957   1.86898   1.87398
 Alpha virt. eigenvalues --    1.89693   1.91504   1.96762   1.97071   1.99584
 Alpha virt. eigenvalues --    2.00368   2.01441   2.02812   2.03032   2.03718
 Alpha virt. eigenvalues --    2.05600   2.06700   2.07053   2.11463   2.15168
 Alpha virt. eigenvalues --    2.16617   2.18858   2.20732   2.23839   2.25502
 Alpha virt. eigenvalues --    2.28174   2.31033   2.32234   2.34657   2.37866
 Alpha virt. eigenvalues --    2.41269   2.51067   2.52699   2.53218   2.56292
 Alpha virt. eigenvalues --    2.57874   2.61751   2.66351   2.67259   2.73346
 Alpha virt. eigenvalues --    2.77123   2.77244   2.78150   2.79532   2.80125
 Alpha virt. eigenvalues --    2.81438   2.82206   2.82672   2.83776   2.84597
 Alpha virt. eigenvalues --    2.85201   2.87878   2.89576   2.90298   2.92249
 Alpha virt. eigenvalues --    2.93670   2.95480   2.99539   3.00228   3.01007
 Alpha virt. eigenvalues --    3.03308   3.07339   3.09306   3.11348   3.15031
 Alpha virt. eigenvalues --    3.18117   3.29647   3.34715   3.42740   3.44911
 Alpha virt. eigenvalues --    3.48267   3.52273   3.58616   3.61242   3.63589
 Alpha virt. eigenvalues --    3.66550   3.75837   3.83850   4.02793   4.04924
 Alpha virt. eigenvalues --    4.11573   4.12838   4.16179   4.26950   4.28286
 Alpha virt. eigenvalues --    4.55710   4.63784   4.92068   5.35939  14.79016
 Alpha virt. eigenvalues --   23.71840  23.96382  24.05551  24.06959  24.13470
 Alpha virt. eigenvalues --   24.14684  24.21820  24.29495  24.31242  35.83739
          Condensed to atoms (all electrons):
               1          2          3          4          5          6
     1  C    8.491010  -0.294030  -0.310649  -2.530186  -0.597869  -0.021290
     2  C   -0.294030  10.116961  -0.020875  -3.095195   1.770398  -0.999043
     3  C   -0.310649  -0.020875  22.561160  -8.991284  -5.758172   0.166175
     4  C   -2.530186  -3.095195  -8.991284  28.078702  -1.377569   0.578992
     5  C   -0.597869   1.770398  -5.758172  -1.377569  11.372042  -0.327767
     6  C   -0.021290  -0.999043   0.166175   0.578992  -0.327767   6.805116
     7  H    0.440454  -0.097864   0.035409   0.078505  -0.066416  -0.060113
     8  C    1.231683  -0.668728   1.825491 -11.845623   0.401024  -0.350510
     9  H   -0.002540   0.038500  -0.004447  -0.010705   0.402027  -0.053301
    10  H   -0.043403   0.016383  -0.027206   0.003932   0.015248   0.375327
    11  C   -0.311446  -0.010441  -1.459169   4.855705   0.372900  -0.209141
    12  C    0.164820   0.131413   0.913724  -3.088275  -0.423461   0.160413
    13  H    0.007148  -0.013236   0.122962  -0.168423  -0.019892   0.020278
    14  H   -0.004319  -0.014849  -0.088325   0.082297   0.024201   0.002585
    15  H    0.009298   0.031283   0.083572  -0.097110  -0.036753   0.005853
    16  N   -0.068251  -0.499059  -0.580954   1.162954   0.201090   0.034153
    17  B    0.076307  -0.207088   0.127484   0.106404   0.044960   0.134400
    18  H   -0.204367  -0.213242   0.331506   0.083177   0.002221   0.007018
    19  H    0.222452  -0.225937  -0.141293  -0.030809   0.030380   0.030815
               7          8          9         10         11         12
     1  C    0.440454   1.231683  -0.002540  -0.043403  -0.311446   0.164820
     2  C   -0.097864  -0.668728   0.038500   0.016383  -0.010441   0.131413
     3  C    0.035409   1.825491  -0.004447  -0.027206  -1.459169   0.913724
     4  C    0.078505 -11.845623  -0.010705   0.003932   4.855705  -3.088275
     5  C   -0.066416   0.401024   0.402027   0.015248   0.372900  -0.423461
     6  C   -0.060113  -0.350510  -0.053301   0.375327  -0.209141   0.160413
     7  H    0.481368   0.004714   0.000954  -0.008400   0.004119  -0.008817
     8  C    0.004714  17.991861  -0.051399  -0.011160  -4.541066   2.225899
     9  H    0.000954  -0.051399   0.451762  -0.006619   0.046739  -0.017037
    10  H   -0.008400  -0.011160  -0.006619   0.438435   0.001571   0.001792
    11  C    0.004119  -4.541066   0.046739   0.001571   9.059974  -1.840200
    12  C   -0.008817   2.225899  -0.017037   0.001792  -1.840200   7.139653
    13  H   -0.000070   0.430141   0.004629   0.000182  -0.086762   0.053615
    14  H    0.000050  -0.017850   0.000222  -0.000067   0.371002  -0.035833
    15  H   -0.000347  -0.006765  -0.000462   0.000078  -0.123208   0.508723
    16  N   -0.002127  -0.333451  -0.001719   0.001155   0.247457   0.066383
    17  B   -0.045682  -0.019884  -0.000715   0.004638   0.003586  -0.010527
    18  H   -0.002704  -0.034727   0.000285   0.000339   0.023817  -0.044453
    19  H   -0.013500  -0.001784  -0.000075   0.000852  -0.001738   0.001844
              13         14         15         16         17         18
     1  C    0.007148  -0.004319   0.009298  -0.068251   0.076307  -0.204367
     2  C   -0.013236  -0.014849   0.031283  -0.499059  -0.207088  -0.213242
     3  C    0.122962  -0.088325   0.083572  -0.580954   0.127484   0.331506
     4  C   -0.168423   0.082297  -0.097110   1.162954   0.106404   0.083177
     5  C   -0.019892   0.024201  -0.036753   0.201090   0.044960   0.002221
     6  C    0.020278   0.002585   0.005853   0.034153   0.134400   0.007018
     7  H   -0.000070   0.000050  -0.000347  -0.002127  -0.045682  -0.002704
     8  C    0.430141  -0.017850  -0.006765  -0.333451  -0.019884  -0.034727
     9  H    0.004629   0.000222  -0.000462  -0.001719  -0.000715   0.000285
    10  H    0.000182  -0.000067   0.000078   0.001155   0.004638   0.000339
    11  C   -0.086762   0.371002  -0.123208   0.247457   0.003586   0.023817
    12  C    0.053615  -0.035833   0.508723   0.066383  -0.010527  -0.044453
    13  H    0.432399  -0.004020   0.002094  -0.008007   0.000396  -0.000292
    14  H   -0.004020   0.425871  -0.000682   0.013365  -0.000125   0.000446
    15  H    0.002094  -0.000682   0.478929  -0.104308  -0.001587  -0.002508
    16  N   -0.008007   0.013365  -0.104308   6.781631  -0.043438  -0.024667
    17  B    0.000396  -0.000125  -0.001587  -0.043438   3.981719   0.486555
    18  H   -0.000292   0.000446  -0.002508  -0.024667   0.486555   0.650672
    19  H   -0.000017  -0.000098   0.000097   0.001181   0.490591  -0.023487
              19
     1  C    0.222452
     2  C   -0.225937
     3  C   -0.141293
     4  C   -0.030809
     5  C    0.030380
     6  C    0.030815
     7  H   -0.013500
     8  C   -0.001784
     9  H   -0.000075
    10  H    0.000852
    11  C   -0.001738
    12  C    0.001844
    13  H   -0.000017
    14  H   -0.000098
    15  H    0.000097
    16  N    0.001181
    17  B    0.490591
    18  H   -0.023487
    19  H    0.641086
 Mulliken charges:
               1
     1  C   -0.254822
     2  C    0.254649
     3  C   -2.785110
     4  C    2.204510
     5  C   -0.028591
     6  C   -0.299960
     7  H    0.260467
     8  C   -0.227866
     9  H    0.203900
    10  H    0.236922
    11  C   -0.403696
    12  C    0.100325
    13  H    0.226872
    14  H    0.246129
    15  H    0.253803
    16  N    0.156611
    17  B   -0.127994
    18  H   -0.035590
    19  H    0.019440
 Sum of Mulliken charges =  -0.00000
 Mulliken charges with hydrogens summed into heavy atoms:
               1
     1  C    0.005645
     2  C    0.254649
     3  C   -2.785110
     4  C    2.204510
     5  C    0.175309
     6  C   -0.063039
     8  C   -0.000994
    11  C   -0.157566
    12  C    0.354128
    16  N    0.156611
    17  B   -0.144144
 Electronic spatial extent (au):  <R**2>=           3639.8159
 Charge=             -0.0000 electrons
 Dipole moment (field-independent basis, Debye):
    X=             -2.0843    Y=              3.5872    Z=              0.2388  Tot=              4.1556
 Quadrupole moment (field-independent basis, Debye-Ang):
   XX=            -48.2009   YY=            -49.3450   ZZ=            -67.6062
   XY=             -6.2533   XZ=             -1.8994   YZ=             -0.5170
 Traceless Quadrupole moment (field-independent basis, Debye-Ang):
   XX=              6.8498   YY=              5.7057   ZZ=            -12.5555
   XY=             -6.2533   XZ=             -1.8994   YZ=             -0.5170
 Octapole moment (field-independent basis, Debye-Ang**2):
  XXX=            359.5154  YYY=           -216.7881  ZZZ=              4.6253  XYY=            120.8095
  XXY=            -65.6435  XXZ=             10.8349  XZZ=            159.1345  YZZ=           -109.4456
  YYZ=             -0.4073  XYZ=             -3.5180
 Hexadecapole moment (field-independent basis, Debye-Ang**3):
 XXXX=          -2545.4221 YYYY=          -1722.4438 ZZZZ=            -96.8949 XXXY=            433.8341
 XXXZ=             -7.8886 YYYX=            428.4396 YYYZ=             18.2892 ZZZX=             57.2352
 ZZZY=             31.0668 XXYY=           -714.7523 XXZZ=           -566.9810 YYZZ=           -389.0440
 XXYZ=             22.2733 YYXZ=              4.9518 ZZXY=            215.2973
 N-N= 5.262798551405D+02 E-N=-2.044288783967D+03  KE= 4.254963127759D+02
 Breneman (CHELPG) radii used.
 Generate Potential Derived Charges using the Breneman model, NDens= 1.
 Grid spacing= 0.300 Box extension= 2.800
 NStep X,Y,Z=   43     43     23   Total possible points=       42527
 Number of Points to Fit=   13241

 **********************************************************************

            Electrostatic Properties Using The SCF Density.

 **********************************************************************

       Atomic Center    1 is at  -4.000652  0.051829  0.214610
       Atomic Center    2 is at  -2.627021  0.057731  0.030741
       Atomic Center    3 is at  -1.969639  1.333271 -0.071205
       Atomic Center    4 is at  -2.735846  2.526388  0.018531
       Atomic Center    5 is at  -4.138785  2.447893  0.207417
       Atomic Center    6 is at  -4.762698  1.234710  0.304252
       Atomic Center    7 is at  -4.510048 -0.903264  0.292959
       Atomic Center    8 is at  -2.062920  3.766303 -0.085369
       Atomic Center    9 is at  -4.708346  3.369753  0.273394
       Atomic Center   10 is at  -5.835285  1.178613  0.448566
       Atomic Center   11 is at  -0.709300  3.777053 -0.267642
       Atomic Center   12 is at  -0.035548  2.538169 -0.344682
       Atomic Center   13 is at  -2.630152  4.689248 -0.019010
       Atomic Center   14 is at  -0.152862  4.702246 -0.352684
       Atomic Center   15 is at   1.042156  2.525119 -0.489852
       Atomic Center   16 is at  -0.621800  1.369668 -0.252895
       Atomic Center   17 is at  -1.887154 -1.296043 -0.052039
       Atomic Center   18 is at  -0.709408 -1.378145 -0.200289
       Atomic Center   19 is at  -2.543798 -2.294278  0.040258
   13241 points will be used for fitting atomic charges
 Fitting point charges to electrostatic potential
 Charges from ESP fit, RMS=   0.00445 RRMS=   0.27465:
 ESP charges:
               1
     1  C   -0.086918
     2  C   -0.314677
     3  C    0.463731
     4  C    0.030443
     5  C   -0.194595
     6  C   -0.061263
     7  H    0.118584
     8  C   -0.073144
     9  H    0.137088
    10  H    0.099058
    11  C   -0.250837
    12  C    0.327567
    13  H    0.125228
    14  H    0.126099
    15  H    0.039128
    16  N   -0.603593
    17  B    0.569711
    18  H   -0.226446
    19  H   -0.225165
 Sum of ESP charges =   0.00000
 ESP charges with hydrogens summed into heavy atoms:
               1
     1  C    0.031666
     2  C   -0.314677
     3  C    0.463731
     4  C    0.030443
     5  C   -0.057507
     6  C    0.037796
     8  C    0.052084
    11  C   -0.124738
    12  C    0.366696
    16  N   -0.603593
    17  B    0.118100
 Charge=   0.00000 Dipole=    -2.1159     3.5697     0.2431 Tot=     4.1568
 -----------------------------------------------------------------

              Electrostatic Properties (Atomic Units)

 -----------------------------------------------------------------
    Center     Electric         -------- Electric Field --------
               Potential          X             Y             Z
 -----------------------------------------------------------------
    1 Atom    -14.756304
    2 Atom    -14.787532
    3 Atom    -14.729809
    4 Atom    -14.748350
    5 Atom    -14.747515
    6 Atom    -14.758458
    7 Atom     -1.098207
    8 Atom    -14.743639
    9 Atom     -1.078332
   10 Atom     -1.087826
   11 Atom    -14.756607
   12 Atom    -14.733259
   13 Atom     -1.074138
   14 Atom     -1.081329
   15 Atom     -1.100967
   16 Atom    -18.410628
   17 Atom    -11.477736
   18 Atom     -1.183599
   19 Atom     -1.172316
 -----------------------------------------------------------------
 Unable to Open any file for archive entry.
 1\1\GINC-IRENE5159\SP\RwB97XD\GenECP\C9H8B1N1\PENASFRA\10-Apr-2024\0\\
 # wb97xd/genecp scrf=(solvent=toluene,pcm) nosymm pop=(chelpg) scfcyc=
 300\\h_quinoline_chelpg\\0,1\C,0,-4.000652,0.051829,0.21461\C,0,-2.627
 021,0.057731,0.030741\C,0,-1.969639,1.333271,-0.071205\C,0,-2.735846,2
 .526388,0.018531\C,0,-4.138785,2.447893,0.207417\C,0,-4.762698,1.23471
 ,0.304252\H,0,-4.510048,-0.903264,0.292959\C,0,-2.06292,3.766303,-0.08
 5369\H,0,-4.708346,3.369753,0.273394\H,0,-5.835285,1.178613,0.448566\C
 ,0,-0.7093,3.777053,-0.267642\C,0,-0.035548,2.538169,-0.344682\H,0,-2.
 630152,4.689248,-0.01901\H,0,-0.152862,4.702246,-0.352684\H,0,1.042156
 ,2.525119,-0.489852\N,0,-0.6218,1.369668,-0.252895\B,0,-1.887154,-1.29
 6043,-0.052039\H,0,-0.709408,-1.378145,-0.200289\H,0,-2.543798,-2.2942
 78,0.040258\\Version=AS64L-G16RevC.02\HF=-427.3143538\RMSD=6.172e-09\D
 ipole=-0.8200448,1.4112958,0.0939635\Quadrupole=5.0926636,4.2420547,-9
 .3347183,-4.6491497,-1.4121314,-0.3843578\PG=C01 [X(C9H8B1N1)]\\@
 The archive entry for this job was punched.


 EVERYBODY NEEDS BEAUTY AS WELL AS BREAD, PLACES TO PLAY IN AND PRAY IN,
 WHERE NATURE MAY HEAL AND CHEER AND GIVE STRENGTH TO BODY AND SOUL ALIKE.

                                    -- JOHN MUIR
 Job cpu time:       0 days  0 hours 29 minutes 29.4 seconds.
 Elapsed time:       0 days  0 hours  0 minutes 18.5 seconds.
 File lengths (MBytes):  RWF=     97 Int=      0 D2E=      0 Chk=      7 Scr=      1
 Normal termination of Gaussian 16 at Wed Apr 10 16:13:41 2024.
