 Entering Gaussian System, Link 0=/ccc/products/gaussian-16-C.02/system/default/g16/g16
 Input=h_xanthene_chelpg.gjf
 Output=h_xanthene_chelpg.log
 Initial command:
 /ccc/products/gaussian-16-C.02/system/default/g16/l1.exe "/ccc/scratch/cont003/gen7343/penasfra/flp/b-n_flp/h_xanthene/reac/Gau-509970.inp" -scrdir="/ccc/scratch/cont003/gen7343/penasfra/flp/b-n_flp/h_xanthene/reac/"
 Entering Link 1 = /ccc/products/gaussian-16-C.02/system/default/g16/l1.exe PID=    510019.
  
 Copyright (c) 1988-2021, Gaussian, Inc.  All Rights Reserved.
  
 This is part of the Gaussian(R) 16 program.  It is based on
 the Gaussian(R) 09 system (copyright 2009, Gaussian, Inc.),
 the Gaussian(R) 03 system (copyright 2003, Gaussian, Inc.),
 the Gaussian(R) 98 system (copyright 1998, Gaussian, Inc.),
 the Gaussian(R) 94 system (copyright 1995, Gaussian, Inc.),
 the Gaussian 92(TM) system (copyright 1992, Gaussian, Inc.),
 the Gaussian 90(TM) system (copyright 1990, Gaussian, Inc.),
 the Gaussian 88(TM) system (copyright 1988, Gaussian, Inc.),
 the Gaussian 86(TM) system (copyright 1986, Carnegie Mellon
 University), and the Gaussian 82(TM) system (copyright 1983,
 Carnegie Mellon University). Gaussian is a federally registered
 trademark of Gaussian, Inc.
  
 This software contains proprietary and confidential information,
 including trade secrets, belonging to Gaussian, Inc.
  
 This software is provided under written license and may be
 used, copied, transmitted, or stored only in accord with that
 written license.
  
 The following legend is applicable only to US Government
 contracts under FAR:
  
                    RESTRICTED RIGHTS LEGEND
  
 Use, reproduction and disclosure by the US Government is
 subject to restrictions as set forth in subparagraphs (a)
 and (c) of the Commercial Computer Software - Restricted
 Rights clause in FAR 52.227-19.
  
 Gaussian, Inc.
 340 Quinnipiac St., Bldg. 40, Wallingford CT 06492
  
  
 ---------------------------------------------------------------
 Warning -- This program may not be used in any manner that
 competes with the business of Gaussian, Inc. or will provide
 assistance to any competitor of Gaussian, Inc.  The licensee
 of this program is prohibited from giving any competitor of
 Gaussian, Inc. access to this program.  By using this program,
 the user acknowledges that Gaussian, Inc. is engaged in the
 business of creating and licensing software in the field of
 computational chemistry and represents and warrants to the
 licensee that it is not a competitor of Gaussian, Inc. and that
 it will not use this program in any manner prohibited above.
 ---------------------------------------------------------------
  

 Cite this work as:
 Gaussian 16, Revision C.02,
 M. J. Frisch, G. W. Trucks, H. B. Schlegel, G. E. Scuseria, 
 M. A. Robb, J. R. Cheeseman, G. Scalmani, V. Barone, 
 G. A. Petersson, H. Nakatsuji, X. Li, M. Caricato, A. V. Marenich, 
 J. Bloino, B. G. Janesko, R. Gomperts, B. Mennucci, H. P. Hratchian, 
 J. V. Ortiz, A. F. Izmaylov, J. L. Sonnenberg, D. Williams-Young, 
 F. Ding, F. Lipparini, F. Egidi, J. Goings, B. Peng, A. Petrone, 
 T. Henderson, D. Ranasinghe, V. G. Zakrzewski, J. Gao, N. Rega, 
 G. Zheng, W. Liang, M. Hada, M. Ehara, K. Toyota, R. Fukuda, 
 J. Hasegawa, M. Ishida, T. Nakajima, Y. Honda, O. Kitao, H. Nakai, 
 T. Vreven, K. Throssell, J. A. Montgomery, Jr., J. E. Peralta, 
 F. Ogliaro, M. J. Bearpark, J. J. Heyd, E. N. Brothers, K. N. Kudin, 
 V. N. Staroverov, T. A. Keith, R. Kobayashi, J. Normand, 
 K. Raghavachari, A. P. Rendell, J. C. Burant, S. S. Iyengar, 
 J. Tomasi, M. Cossi, J. M. Millam, M. Klene, C. Adamo, R. Cammi, 
 J. W. Ochterski, R. L. Martin, K. Morokuma, O. Farkas, 
 J. B. Foresman, and D. J. Fox, Gaussian, Inc., Wallingford CT, 2019.
 
 ******************************************
 Gaussian 16:  AS64L-G16RevC.02  7-Dec-2021
                10-Apr-2024 
 ******************************************
 %nprocshared=128
 Will use up to  128 processors via shared memory.
 %mem=30GB
 %chk=h_xanthene_chelpg.chk
 ----------------------------------------------------------------------
 # wb97xd/genecp scrf=(solvent=toluene,pcm) nosymm pop=(chelpg) scfcyc=
 300
 ----------------------------------------------------------------------
 1/38=1,172=1/1;
 2/12=2,15=1,17=6,18=5,40=1/2;
 3/5=7,11=2,16=1,17=8,25=1,30=1,70=2201,72=13,74=-58/1,2,3;
 4//1;
 5/5=2,7=300,38=5,53=13/2;
 6/7=2,8=2,9=2,10=2,15=8,20=3,28=1/1,2;
 99/5=1,9=1/99;
 -----------------
 h_xanthene_chelpg
 -----------------
 Symbolic Z-matrix:
 Charge =  0 Multiplicity = 1
 C                    -2.09841   1.42204   1.03379 
 C                    -0.7327    1.28293   1.33547 
 C                     0.18325   2.27292   1.02374 
 C                    -0.25689   3.44847   0.42165 
 C                    -1.60047   3.65812   0.12378 
 C                    -2.4908    2.62624   0.42158 
 H                    -0.39887   0.36709   1.81199 
 H                     1.23506   2.14355   1.24995 
 H                     0.46883   4.2202    0.19449 
 C                    -2.16648   4.9676   -0.41663 
 O                    -3.8134    2.77177   0.13106 
 C                    -1.10526   5.79826  -1.1414 
 H                    -1.52953   6.74004  -1.49419 
 H                    -0.29217   6.06224  -0.46217 
 H                    -0.68681   5.2619   -1.99679 
 C                    -2.70709   5.78724   0.77938 
 H                    -1.89281   6.03019   1.46809 
 H                    -3.15644   6.71833   0.42298 
 H                    -3.46758   5.2293    1.33061 
 C                    -3.34366   4.61876  -1.32341 
 C                    -4.14997   3.55192  -0.94937 
 C                    -3.68353   5.33249  -2.47327 
 C                    -5.31718   3.19001  -1.6478 
 C                    -4.81311   4.98767  -3.19678 
 H                    -3.06927   6.15899  -2.80578 
 C                    -5.62868   3.94035  -2.7838 
 H                    -5.07413   5.54623  -4.08854 
 H                    -6.51368   3.70197  -3.35912 
 B                    -3.07836   0.27427   1.33574 
 N                    -6.07418   2.08194  -1.2296 
 C                    -6.64371   2.15952   0.1111 
 H                    -7.49168   2.86226   0.14996 
 H                    -7.00262   1.16959   0.40219 
 H                    -5.89077   2.46931   0.83133 
 C                    -7.02172   1.54741  -2.18727 
 H                    -7.37801   0.58302  -1.81906 
 H                    -7.90126   2.19543  -2.33944 
 H                    -6.53578   1.38424  -3.15086 
 H                    -4.23052   0.32793   1.0345 
 H                    -2.65441  -0.70209   1.88508 
 
                          Input orientation:                          
 ---------------------------------------------------------------------
 Center     Atomic      Atomic             Coordinates (Angstroms)
 Number     Number       Type             X           Y           Z
 ---------------------------------------------------------------------
      1          6           0       -2.098413    1.422043    1.033791
      2          6           0       -0.732699    1.282929    1.335472
      3          6           0        0.183254    2.272919    1.023738
      4          6           0       -0.256892    3.448466    0.421649
      5          6           0       -1.600471    3.658117    0.123780
      6          6           0       -2.490798    2.626238    0.421577
      7          1           0       -0.398866    0.367090    1.811986
      8          1           0        1.235057    2.143545    1.249946
      9          1           0        0.468834    4.220198    0.194487
     10          6           0       -2.166480    4.967596   -0.416633
     11          8           0       -3.813404    2.771768    0.131063
     12          6           0       -1.105261    5.798262   -1.141402
     13          1           0       -1.529533    6.740042   -1.494190
     14          1           0       -0.292168    6.062243   -0.462166
     15          1           0       -0.686812    5.261903   -1.996791
     16          6           0       -2.707085    5.787238    0.779378
     17          1           0       -1.892810    6.030191    1.468089
     18          1           0       -3.156436    6.718334    0.422978
     19          1           0       -3.467582    5.229301    1.330606
     20          6           0       -3.343661    4.618761   -1.323410
     21          6           0       -4.149972    3.551917   -0.949369
     22          6           0       -3.683530    5.332486   -2.473265
     23          6           0       -5.317182    3.190006   -1.647801
     24          6           0       -4.813112    4.987669   -3.196781
     25          1           0       -3.069268    6.158989   -2.805777
     26          6           0       -5.628675    3.940345   -2.783795
     27          1           0       -5.074133    5.546229   -4.088538
     28          1           0       -6.513677    3.701967   -3.359122
     29          5           0       -3.078362    0.274267    1.335740
     30          7           0       -6.074179    2.081938   -1.229601
     31          6           0       -6.643712    2.159521    0.111101
     32          1           0       -7.491680    2.862259    0.149957
     33          1           0       -7.002622    1.169586    0.402192
     34          1           0       -5.890768    2.469305    0.831331
     35          6           0       -7.021717    1.547410   -2.187274
     36          1           0       -7.378008    0.583023   -1.819064
     37          1           0       -7.901256    2.195426   -2.339439
     38          1           0       -6.535782    1.384244   -3.150856
     39          1           0       -4.230522    0.327932    1.034504
     40          1           0       -2.654406   -0.702092    1.885078
 ---------------------------------------------------------------------
                    Distance matrix (angstroms):
                    1          2          3          4          5
     1  C    0.000000
     2  C    1.405539   0.000000
     3  C    2.435179   1.384279   0.000000
     4  C    2.805763   2.398127   1.392175   0.000000
     5  C    2.464973   2.804058   2.431126   1.392079   0.000000
     6  C    1.406719   2.393866   2.763691   2.380419   1.395041
     7  H    2.146386   1.085021   2.142985   3.383500   3.889056
     8  H    3.417501   2.149427   1.083604   2.148210   3.406229
     9  H    3.889069   3.372399   2.135675   1.083444   2.145450
    10  C    3.831359   4.324624   3.854504   2.580116   1.525499
    11  O    2.361751   3.627394   4.125408   3.631961   2.383850
    12  C    4.986894   5.163520   4.333145   2.946931   2.534983
    13  H    5.915693   6.198549   5.406366   4.015536   3.481540
    14  H    5.199218   5.125174   4.097916   2.759385   2.799073
    15  H    5.091323   5.190214   4.337584   3.053234   2.811356
    16  C    4.414763   4.949368   4.556776   3.406064   2.487481
    17  H    4.633132   4.888757   4.315621   3.230568   2.742146
    18  H    5.435366   6.020862   5.592509   4.370285   3.446081
    19  H    4.056838   4.801402   4.707756   3.782341   2.722343
    20  C    4.162457   5.001455   4.842645   3.734028   2.460875
    21  C    3.560643   4.695376   4.930095   4.128736   2.768191
    22  C    5.486675   6.293869   6.044998   4.865378   3.726565
    23  C    4.547208   5.792611   6.183281   5.473204   4.143859
    24  C    6.162874   7.135558   7.081407   6.018415   4.807795
    25  H    6.174423   6.810687   6.351821   5.066821   4.122382
    26  C    5.777418   6.928261   7.145358   6.274780   4.975949
    27  H    7.218177   8.151298   8.030569   6.924464   5.777103
    28  H    6.632518   7.830113   8.130223   7.314769   6.022634
    29  B    1.539111   2.553338   3.837980   4.344168   3.886316
    30  N    4.622242   5.979082   6.653531   6.199585   4.932549
    31  C    4.696272   6.099801   6.888630   6.522982   5.261200
    32  H    5.651789   7.041559   7.746962   7.263581   5.944781
    33  H    4.951153   6.340015   7.296607   7.120291   5.954287
    34  H    3.939506   5.316702   6.080241   5.732988   4.507832
    35  C    5.884717   7.213282   7.921399   7.495555   6.259869
    36  H    6.059444   7.389256   8.252876   7.996365   6.827209
    37  H    6.756463   8.107147   8.756499   8.223747   6.921474
    38  H    6.099422   7.335746   7.960052   7.513206   6.344370
    39  H    2.396449   3.638319   4.823330   5.089505   4.340129
    40  H    2.354945   2.816972   4.200585   5.011669   4.819167
                    6          7          8          9         10
     6  C    0.000000
     7  H    3.378338   0.000000
     8  H    3.847231   2.478182   0.000000
     9  H    3.369228   4.267979   2.452260   0.000000
    10  C    2.507934   5.408868   4.724744   2.806591   0.000000
    11  O    1.361934   4.501894   5.208985   4.521010   2.798927
    12  C    3.797941   6.222469   4.955057   2.598588   1.530190
    13  H    4.638704   7.267993   6.025033   3.632453   2.169884
    14  H    4.173860   6.133345   4.540918   2.098439   2.171030
    15  H    4.006195   6.208775   4.894797   2.687446   2.184704
    16  C    3.188530   5.980983   5.388731   3.589453   1.547420
    17  H    3.611049   5.866928   4.993712   3.236588   2.180867
    18  H    4.145881   7.061999   6.395137   4.408568   2.179459
    19  H    2.925129   5.769735   5.625230   4.219529   2.194129
    20  C    2.782535   6.048077   5.806334   4.122861   1.526331
    21  C    2.342911   5.642606   5.984901   4.805036   2.494433
    22  C    4.138417   7.335363   6.944361   5.059270   2.581535
    23  C    3.548043   6.642952   7.240432   6.159002   3.821325
    24  C    4.905305   8.119302   8.027625   6.323659   3.838527
    25  H    4.819831   7.874063   7.148419   5.027789   2.818236
    26  C    4.674137   7.825615   8.161518   6.791767   4.318043
    27  H    5.961636   9.137712   8.937760   7.129316   4.719338
    28  H    5.624450   8.674830   9.149594   7.851889   5.399831
    29  B    2.590887   2.723073   4.701824   5.427286   5.092119
    30  N    3.982872   6.663418   7.718606   7.029310   4.925246
    31  C    4.190575   6.715945   7.960667   7.405515   5.311252
    32  H    5.013811   7.700404   8.825104   8.075628   5.754235
    33  H    4.741178   6.800082   8.338264   8.072920   6.203517
    34  H    3.428166   5.961709   7.145540   6.626895   4.655018
    35  C    5.338464   7.826199   8.963491   8.302104   6.197271
    36  H    5.751523   7.870170   9.275718   8.880110   6.953511
    37  H    6.089488   8.767154   9.816241   8.976574   6.653553
    38  H    5.537754   7.957772   8.962675   8.264297   6.277514
    39  H    2.946953   3.909936   5.763282   6.159489   5.281340
    40  H    3.639558   2.497189   4.860963   6.069734   6.138510
                   11         12         13         14         15
    11  O    0.000000
    12  C    4.255922   0.000000
    13  H    4.858468   1.091520   0.000000
    14  H    4.855744   1.091864   1.748015   0.000000
    15  H    4.528147   1.092919   1.774171   1.775208   0.000000
    16  C    3.276784   2.501071   2.731955   2.729264   3.473412
    17  H    4.011688   2.735593   3.067728   2.507781   3.748345
    18  H    4.011509   2.738820   2.514521   3.068871   3.751735
    19  H    2.756441   3.466281   3.744041   3.740465   4.336510
    20  C    2.397401   2.536688   2.796437   3.483818   2.815301
    21  C    1.374498   3.788563   4.162652   4.628364   4.001827
    22  C    3.654678   2.939095   2.753090   4.009788   3.035182
    23  C    2.366565   4.979932   5.193519   5.908150   5.084769
    24  C    4.121187   4.316226   4.092862   5.391824   4.305988
    25  H    4.544451   2.599537   2.104440   3.635128   2.671202
    26  C    3.627282   5.158545   5.128777   6.194410   5.175703
    27  H    5.205008   4.949856   4.551925   6.023623   4.868761
    28  H    4.509782   6.209968   6.127770   7.257440   6.183988
    29  B    2.868631   6.367408   7.225899   6.670533   6.457692
    30  N    2.727339   6.205561   6.513198   7.061405   6.302736
    31  C    2.895840   6.744156   7.050742   7.476763   7.039364
    32  H    3.679437   7.146612   7.299837   7.902377   7.528150
    33  H    3.579331   7.654162   8.036227   8.349575   7.898837
    34  H    2.212984   6.154243   6.532045   6.776921   6.548132
    35  C    4.143309   7.359894   7.589985   8.285321   7.346071
    36  H    4.615192   8.185676   8.498181   9.059368   8.166738
    37  H    4.811038   7.784682   7.871902   8.739259   7.846585
    38  H    4.484145   7.280935   7.516092   8.251996   7.111860
    39  H    2.638660   6.665308   7.403026   7.115685   6.789013
    40  H    4.060486   7.335805   8.250464   7.539625   7.383060
                   16         17         18         19         20
    16  C    0.000000
    17  H    1.093797   0.000000
    18  H    1.093562   1.778356   0.000000
    19  H    1.092475   1.772070   1.771389   0.000000
    20  C    2.488430   3.448126   2.737358   2.726154   0.000000
    21  C    3.172877   4.132883   3.591190   2.911625   1.388596
    22  C    3.426358   4.384945   3.253710   3.811393   1.395378
    23  C    4.410149   5.431551   4.626667   4.055940   2.457917
    24  C    4.569956   5.601431   4.340787   4.729278   2.409336
    25  H    3.622528   4.434701   3.278006   4.258244   2.155228
    26  C    4.964162   6.033462   4.910456   4.822865   2.795400
    27  H    5.418266   6.421148   5.040354   5.661146   3.391263
    28  H    5.997139   7.076369   5.888448   5.796981   3.877323
    29  B    5.553398   5.878240   6.508858   4.970300   5.100597
    30  N    5.394679   6.352171   5.721924   4.822334   3.728270
    31  C    5.394808   6.276510   5.748142   4.582417   4.358442
    32  H    5.643051   6.566629   5.808459   4.815619   4.739427
    33  H    6.317960   7.132447   6.751458   5.462577   5.316249
    34  H    4.598610   5.391571   5.069277   3.706573   3.968731
    35  C    6.737449   7.730633   6.963639   6.209966   4.869040
    36  H    7.460112   8.400263   7.777562   6.841034   5.727898
    37  H    7.043262   8.081096   7.113435   6.506235   5.260850
    38  H    7.035056   8.029736   7.255673   6.654458   4.898091
    39  H    5.673621   6.178078   6.508830   4.969222   4.975690
    40  H    6.583066   6.788044   7.579742   6.012497   6.251475
                   21         22         23         24         25
    21  C    0.000000
    22  C    2.389614   0.000000
    23  C    1.407539   2.817877   0.000000
    24  C    2.748090   1.385038   2.425906   0.000000
    25  H    3.378017   1.082123   3.899857   2.136789   0.000000
    26  C    2.388003   2.412069   1.396610   1.390176   3.387245
    27  H    3.832197   2.142095   3.401185   1.084136   2.457729
    28  H    3.378835   3.384238   2.149959   2.138061   4.266978
    29  B    4.136794   6.360843   4.734487   6.765298   7.195985
    30  N    2.437610   4.222318   1.405614   3.728721   5.304353
    31  C    3.046654   5.050676   2.432143   4.721398   6.105782
    32  H    3.584851   5.242645   2.840386   4.784637   6.257996
    33  H    3.954723   6.050980   3.335457   5.685448   7.117337
    34  H    2.715384   4.897965   2.644713   4.871261   5.899422
    35  C    3.714482   5.054907   2.427878   4.210988   6.105003
    36  H    4.471120   6.052648   3.327566   5.279934   7.115493
    37  H    4.224274   5.258162   2.853943   4.250681   6.267010
    38  H    3.903516   4.917630   2.646684   3.994293   5.910498
    39  H    3.786333   6.135895   4.070265   6.321102   7.077958
    40  H    5.326106   7.514678   5.892371   7.928347   8.321698
                   26         27         28         29         30
    26  C    0.000000
    27  H    2.142133   0.000000
    28  H    1.082152   2.450640   0.000000
    29  B    6.075755   7.823009   6.752203   0.000000
    30  N    2.463264   4.601622   2.711552   4.338614   0.000000
    31  C    3.547120   5.618749   3.799802   4.214931   1.458722
    32  H    3.638675   5.568938   3.738347   5.251777   2.126356
    33  H    4.440197   6.560543   4.560647   4.131940   2.087377
    34  H    3.911750   5.859988   4.412184   3.603089   2.105026
    35  C    2.832409   4.837194   2.504685   5.438986   1.449374
    36  H    3.906723   5.923830   3.584224   5.341823   2.072241
    37  H    2.899451   4.720154   2.287967   6.360668   2.140755
    38  H    2.737011   4.509743   2.327166   5.771945   2.095489
    39  H    5.439096   7.361241   5.991733   1.192097   3.406139
    40  H    7.224740   8.976674   7.860747   1.197826   5.398787
                   31         32         33         34         35
    31  C    0.000000
    32  H    1.101998   0.000000
    33  H    1.092484   1.779871   0.000000
    34  H    1.087024   1.783705   1.763420   0.000000
    35  C    2.408339   2.722562   2.616954   3.352747   0.000000
    36  H    2.598090   3.014114   2.327864   3.576945   1.092046
    37  H    2.754606   2.609504   3.062096   3.764419   1.103027
    38  H    3.354559   3.740807   3.590009   4.177465   1.091442
    39  H    3.167156   4.223788   2.965255   2.717200   4.433706
    40  H    5.220190   6.254156   4.960757   4.652116   6.381043
                   36         37         38         39         40
    36  H    0.000000
    37  H    1.773252   0.000000
    38  H    1.767758   1.783517   0.000000
    39  H    4.256124   5.324032   4.893593   0.000000
    40  H    6.138779   7.332911   6.691675   2.066051   0.000000
 Symmetry turned off by external request.
 Stoichiometry    C17H20BNO
 Framework group  C1[X(C17H20BNO)]
 Deg. of freedom   114
 Full point group                 C1      NOp   1
 Rotational constants (GHZ):           0.5121317           0.3209709           0.2203121
 General basis read from cards:  (5D, 7F)
 ======================================================================================================
                                       Pseudopotential Parameters
 ======================================================================================================
  Center     Atomic      Valence      Angular      Power
  Number     Number     Electrons     Momentum     of R      Exponent        Coefficient   SO-Coeffient
 ======================================================================================================
    1          6
                                   No pseudopotential on this center.
    2          6
                                   No pseudopotential on this center.
    3          6
                                   No pseudopotential on this center.
    4          6
                                   No pseudopotential on this center.
    5          6
                                   No pseudopotential on this center.
    6          6
                                   No pseudopotential on this center.
    7          1
                                   No pseudopotential on this center.
    8          1
                                   No pseudopotential on this center.
    9          1
                                   No pseudopotential on this center.
   10          6
                                   No pseudopotential on this center.
   11          8
                                   No pseudopotential on this center.
   12          6
                                   No pseudopotential on this center.
   13          1
                                   No pseudopotential on this center.
   14          1
                                   No pseudopotential on this center.
   15          1
                                   No pseudopotential on this center.
   16          6
                                   No pseudopotential on this center.
   17          1
                                   No pseudopotential on this center.
   18          1
                                   No pseudopotential on this center.
   19          1
                                   No pseudopotential on this center.
   20          6
                                   No pseudopotential on this center.
   21          6
                                   No pseudopotential on this center.
   22          6
                                   No pseudopotential on this center.
   23          6
                                   No pseudopotential on this center.
   24          6
                                   No pseudopotential on this center.
   25          1
                                   No pseudopotential on this center.
   26          6
                                   No pseudopotential on this center.
   27          1
                                   No pseudopotential on this center.
   28          1
                                   No pseudopotential on this center.
   29          5
                                   No pseudopotential on this center.
   30          7
                                   No pseudopotential on this center.
   31          6
                                   No pseudopotential on this center.
   32          1
                                   No pseudopotential on this center.
   33          1
                                   No pseudopotential on this center.
   34          1
                                   No pseudopotential on this center.
   35          6
                                   No pseudopotential on this center.
   36          1
                                   No pseudopotential on this center.
   37          1
                                   No pseudopotential on this center.
   38          1
                                   No pseudopotential on this center.
   39          1
                                   No pseudopotential on this center.
   40          1
                                   No pseudopotential on this center.
 ======================================================================================================
   580 basis functions,   900 primitive gaussians,   600 cartesian basis functions
    71 alpha electrons       71 beta electrons
       nuclear repulsion energy      1553.3357672761 Hartrees.
 NAtoms=   40 NActive=   40 NUniq=   40 SFac= 1.00D+00 NAtFMM=   60 NAOKFM=F Big=F
 Integral buffers will be    131072 words long.
 Raffenetti 2 integral format.
 Two-electron integral symmetry is turned off.
 Nuclear repulsion after empirical dispersion term =     1553.3018451828 Hartrees.
 ------------------------------------------------------------------------------
 Polarizable Continuum Model (PCM)
 =================================
 Model                : PCM.
 Atomic radii         : UFF (Universal Force Field).
 Polarization charges : Total charges.
 Charge compensation  : None.
 Solution method      : On-the-fly selection.
 Cavity type          : Scaled VdW (van der Waals Surface) (Alpha=1.100).
 Cavity algorithm     : GePol (No added spheres)
                        Default sphere list used, NSphG=   40.
                        Lebedev-Laikov grids with approx.  5.0 points / Ang**2.
                        Smoothing algorithm: York/Karplus (Gamma=1.0000).
                        Polarization charges: spherical gaussians, with
                                              point-specific exponents (IZeta= 3).
                        Self-potential: point-specific (ISelfS= 7).
                        Self-field    : sphere-specific E.n sum rule (ISelfD= 2).
 Solvent              : Toluene, Eps=   2.374100 Eps(inf)=   2.238315
 ------------------------------------------------------------------------------
 One-electron integrals computed using PRISM.
   1 Symmetry operations used in ECPInt.
 ECPInt:  NShTT=   24310 NPrTT=   80620 LenC2=   22419 LenP2D=   52147.
 LDataN:  DoStor=T MaxTD1= 4 Len=   56
 Number of processors reduced to  78 by ecpmxn.
 NBasis=   580 RedAO= T EigKep=  1.95D-06  NBF=   580
 NBsUse=   573 1.00D-06 EigRej=  9.02D-07 NBFU=   573
 ExpMin= 3.15D-02 ExpMax= 8.59D+03 ExpMxC= 1.30D+03 IAcc=3 IRadAn=         5 AccDes= 0.00D+00
 Harris functional with IExCor= 4639 and IRadAn=       5 diagonalized for initial guess.
 HarFok:  IExCor= 4639 AccDes= 0.00D+00 IRadAn=         5 IDoV= 1 UseB2=F ITyADJ=14
 ICtDFT=  3500011 ScaDFX=  1.000000  1.000000  1.000000  1.000000
 FoFCou: FMM=F IPFlag=           0 FMFlag=      100000 FMFlg1=           0
         NFxFlg=           0 DoJE=T BraDBF=F KetDBF=T FulRan=T
         wScrn=  0.000000 ICntrl=       500 IOpCl=  0 I1Cent=   200000004 NGrid=           0
         NMat0=    1 NMatS0=      1 NMatT0=    0 NMatD0=    1 NMtDS0=    0 NMtDT0=    0
 Symmetry not used in FoFCou.
 Requested convergence on RMS density matrix=1.00D-08 within 300 cycles.
 Requested convergence on MAX density matrix=1.00D-06.
 Requested convergence on             energy=1.00D-06.
 No special actions if energy rises.
 Inv3:  Mode=1 IEnd=    22048563.
 Iteration    1 A*A^-1 deviation from unit magnitude is 5.22D-15 for   2685.
 Iteration    1 A*A^-1 deviation from orthogonality  is 5.28D-15 for   2704   1920.
 Iteration    1 A^-1*A deviation from unit magnitude is 5.22D-15 for   2685.
 Iteration    1 A^-1*A deviation from orthogonality  is 2.94D-15 for   2710   1017.
 Error on total polarization charges =  0.01050
 SCF Done:  E(RwB97XD) =  -814.600482107     A.U. after   16 cycles
            NFock= 16  Conv=0.88D-08     -V/T= 2.0044

 **********************************************************************

            Population analysis using the SCF Density.

 **********************************************************************

 Alpha  occ. eigenvalues --  -19.29743 -14.44150 -10.36170 -10.34801 -10.32791
 Alpha  occ. eigenvalues --  -10.32081 -10.30413 -10.30364 -10.30319 -10.29989
 Alpha  occ. eigenvalues --  -10.29907 -10.29838 -10.28982 -10.28661 -10.28520
 Alpha  occ. eigenvalues --  -10.28487 -10.27916 -10.27754 -10.27613  -6.84460
 Alpha  occ. eigenvalues --   -1.20445  -1.04625  -0.97665  -0.96596  -0.92246
 Alpha  occ. eigenvalues --   -0.87311  -0.85426  -0.84046  -0.82858  -0.80978
 Alpha  occ. eigenvalues --   -0.79403  -0.75776  -0.74162  -0.73212  -0.69630
 Alpha  occ. eigenvalues --   -0.67279  -0.65171  -0.64724  -0.60864  -0.58855
 Alpha  occ. eigenvalues --   -0.57874  -0.56891  -0.56698  -0.55922  -0.55200
 Alpha  occ. eigenvalues --   -0.54549  -0.53743  -0.53315  -0.51491  -0.49861
 Alpha  occ. eigenvalues --   -0.49033  -0.48589  -0.48046  -0.47814  -0.47465
 Alpha  occ. eigenvalues --   -0.47025  -0.45936  -0.45392  -0.45321  -0.44662
 Alpha  occ. eigenvalues --   -0.44191  -0.43309  -0.42582  -0.41510  -0.40500
 Alpha  occ. eigenvalues --   -0.39019  -0.35822  -0.34389  -0.33115  -0.30556
 Alpha  occ. eigenvalues --   -0.27622
 Alpha virt. eigenvalues --   -0.00858   0.03848   0.04441   0.04839   0.05071
 Alpha virt. eigenvalues --    0.05309   0.05674   0.05995   0.06236   0.06665
 Alpha virt. eigenvalues --    0.06878   0.07086   0.07500   0.07744   0.07870
 Alpha virt. eigenvalues --    0.08790   0.09036   0.09558   0.09774   0.09943
 Alpha virt. eigenvalues --    0.10255   0.10969   0.11373   0.12007   0.12378
 Alpha virt. eigenvalues --    0.12725   0.12959   0.13674   0.14055   0.14359
 Alpha virt. eigenvalues --    0.14694   0.15467   0.15599   0.15854   0.16051
 Alpha virt. eigenvalues --    0.16353   0.16694   0.17139   0.17545   0.17686
 Alpha virt. eigenvalues --    0.18148   0.18372   0.18425   0.18582   0.18996
 Alpha virt. eigenvalues --    0.19180   0.19371   0.19425   0.19759   0.19894
 Alpha virt. eigenvalues --    0.20291   0.20546   0.20736   0.21241   0.21292
 Alpha virt. eigenvalues --    0.21686   0.21856   0.22375   0.22465   0.22750
 Alpha virt. eigenvalues --    0.23173   0.23271   0.23572   0.23864   0.24023
 Alpha virt. eigenvalues --    0.24129   0.24391   0.24908   0.25012   0.25490
 Alpha virt. eigenvalues --    0.25557   0.25801   0.26227   0.26548   0.26662
 Alpha virt. eigenvalues --    0.27145   0.27450   0.27727   0.28126   0.28262
 Alpha virt. eigenvalues --    0.29029   0.29186   0.29469   0.29769   0.29815
 Alpha virt. eigenvalues --    0.30386   0.30664   0.31468   0.31571   0.31695
 Alpha virt. eigenvalues --    0.32167   0.32580   0.32992   0.33378   0.33715
 Alpha virt. eigenvalues --    0.33813   0.34309   0.34627   0.35164   0.35479
 Alpha virt. eigenvalues --    0.35970   0.36098   0.36298   0.36386   0.37035
 Alpha virt. eigenvalues --    0.37595   0.37794   0.37967   0.38571   0.38712
 Alpha virt. eigenvalues --    0.39014   0.39564   0.39962   0.40385   0.40838
 Alpha virt. eigenvalues --    0.40856   0.41397   0.41673   0.42634   0.42683
 Alpha virt. eigenvalues --    0.43022   0.43576   0.43878   0.44397   0.45174
 Alpha virt. eigenvalues --    0.45401   0.46472   0.46859   0.46999   0.47824
 Alpha virt. eigenvalues --    0.48910   0.49457   0.49765   0.50516   0.51924
 Alpha virt. eigenvalues --    0.52940   0.53203   0.53591   0.55038   0.56888
 Alpha virt. eigenvalues --    0.58026   0.59255   0.59414   0.59822   0.61132
 Alpha virt. eigenvalues --    0.61236   0.61709   0.62427   0.62867   0.63710
 Alpha virt. eigenvalues --    0.64120   0.64188   0.64700   0.65387   0.66049
 Alpha virt. eigenvalues --    0.66568   0.66859   0.67206   0.68056   0.68433
 Alpha virt. eigenvalues --    0.68804   0.70028   0.70491   0.71093   0.71304
 Alpha virt. eigenvalues --    0.72117   0.72519   0.72924   0.73282   0.73614
 Alpha virt. eigenvalues --    0.74521   0.75029   0.75756   0.76002   0.76683
 Alpha virt. eigenvalues --    0.76872   0.77802   0.78175   0.79061   0.79291
 Alpha virt. eigenvalues --    0.79701   0.80227   0.80594   0.81525   0.81921
 Alpha virt. eigenvalues --    0.82805   0.83363   0.83770   0.84334   0.84627
 Alpha virt. eigenvalues --    0.85144   0.85819   0.86743   0.86880   0.87256
 Alpha virt. eigenvalues --    0.87412   0.88780   0.89021   0.90053   0.90364
 Alpha virt. eigenvalues --    0.90629   0.91619   0.92230   0.93375   0.93699
 Alpha virt. eigenvalues --    0.94313   0.95767   0.96621   0.97064   0.97643
 Alpha virt. eigenvalues --    0.98047   0.99542   1.00002   1.00383   1.01121
 Alpha virt. eigenvalues --    1.01370   1.02324   1.02739   1.03504   1.04124
 Alpha virt. eigenvalues --    1.04362   1.04825   1.05787   1.07158   1.07981
 Alpha virt. eigenvalues --    1.08326   1.09905   1.10814   1.11871   1.12150
 Alpha virt. eigenvalues --    1.13997   1.14432   1.16365   1.17653   1.18017
 Alpha virt. eigenvalues --    1.19238   1.19568   1.20586   1.21374   1.22214
 Alpha virt. eigenvalues --    1.23304   1.23974   1.25562   1.29649   1.31129
 Alpha virt. eigenvalues --    1.32901   1.33405   1.34275   1.35723   1.37667
 Alpha virt. eigenvalues --    1.38604   1.39940   1.40503   1.42173   1.42964
 Alpha virt. eigenvalues --    1.45019   1.46558   1.47229   1.49821   1.51728
 Alpha virt. eigenvalues --    1.53468   1.53602   1.54583   1.54822   1.57134
 Alpha virt. eigenvalues --    1.57949   1.58086   1.59187   1.59866   1.60268
 Alpha virt. eigenvalues --    1.61203   1.61790   1.62448   1.62901   1.63733
 Alpha virt. eigenvalues --    1.64301   1.64832   1.65324   1.65784   1.67439
 Alpha virt. eigenvalues --    1.67950   1.68122   1.68743   1.69041   1.69635
 Alpha virt. eigenvalues --    1.71808   1.72284   1.73012   1.73136   1.73927
 Alpha virt. eigenvalues --    1.75029   1.75530   1.76345   1.77531   1.78723
 Alpha virt. eigenvalues --    1.78993   1.79963   1.80427   1.80451   1.81599
 Alpha virt. eigenvalues --    1.82402   1.82772   1.83931   1.84459   1.84917
 Alpha virt. eigenvalues --    1.85439   1.85958   1.86711   1.87327   1.89305
 Alpha virt. eigenvalues --    1.90617   1.91558   1.92423   1.93044   1.94971
 Alpha virt. eigenvalues --    1.95694   1.96839   1.97239   1.98095   1.99550
 Alpha virt. eigenvalues --    2.00971   2.02308   2.02825   2.03711   2.04197
 Alpha virt. eigenvalues --    2.04862   2.05979   2.06225   2.06868   2.08152
 Alpha virt. eigenvalues --    2.08656   2.09564   2.10449   2.10752   2.11891
 Alpha virt. eigenvalues --    2.12603   2.13719   2.15555   2.15893   2.17072
 Alpha virt. eigenvalues --    2.17794   2.20546   2.21565   2.21940   2.23395
 Alpha virt. eigenvalues --    2.23944   2.24559   2.26065   2.26462   2.30857
 Alpha virt. eigenvalues --    2.30985   2.31916   2.33400   2.34025   2.35903
 Alpha virt. eigenvalues --    2.36570   2.39080   2.39530   2.39852   2.43444
 Alpha virt. eigenvalues --    2.44848   2.45633   2.48508   2.50807   2.53627
 Alpha virt. eigenvalues --    2.54256   2.55856   2.56902   2.56997   2.59151
 Alpha virt. eigenvalues --    2.59392   2.60194   2.61984   2.62760   2.63564
 Alpha virt. eigenvalues --    2.64280   2.65567   2.66411   2.66826   2.67403
 Alpha virt. eigenvalues --    2.68301   2.70699   2.71910   2.72960   2.73640
 Alpha virt. eigenvalues --    2.76042   2.76594   2.77560   2.78001   2.78789
 Alpha virt. eigenvalues --    2.79609   2.80466   2.80842   2.81431   2.82615
 Alpha virt. eigenvalues --    2.83725   2.83955   2.85034   2.85910   2.86679
 Alpha virt. eigenvalues --    2.88214   2.88888   2.89512   2.90699   2.91077
 Alpha virt. eigenvalues --    2.91469   2.92631   2.93422   2.94038   2.94315
 Alpha virt. eigenvalues --    2.95807   2.97336   2.97805   2.98420   3.00782
 Alpha virt. eigenvalues --    3.02126   3.03185   3.04833   3.05579   3.05789
 Alpha virt. eigenvalues --    3.07763   3.08837   3.09665   3.12897   3.13908
 Alpha virt. eigenvalues --    3.16610   3.19010   3.21232   3.22714   3.24343
 Alpha virt. eigenvalues --    3.26227   3.28474   3.29769   3.33221   3.36221
 Alpha virt. eigenvalues --    3.36568   3.37855   3.40167   3.40422   3.44990
 Alpha virt. eigenvalues --    3.48973   3.52465   3.54394   3.55510   3.59578
 Alpha virt. eigenvalues --    3.60932   3.65000   3.66215   3.67697   3.68749
 Alpha virt. eigenvalues --    3.74542   3.81809   3.83430   3.86853   3.89750
 Alpha virt. eigenvalues --    3.89876   3.91276   3.91640   3.92836   3.94571
 Alpha virt. eigenvalues --    3.95320   3.95753   3.99642   4.11070   4.14121
 Alpha virt. eigenvalues --    4.15769   4.17765   4.24841   4.28429   4.31862
 Alpha virt. eigenvalues --    4.35310   4.38652   4.40452   4.51502   4.55697
 Alpha virt. eigenvalues --    4.94039   4.96197   4.99736   5.13738   5.26052
 Alpha virt. eigenvalues --    5.61149   6.05431  14.80586  23.70381  23.76530
 Alpha virt. eigenvalues --   23.98023  24.07677  24.08566  24.09048  24.10939
 Alpha virt. eigenvalues --   24.11079  24.11618  24.12303  24.15057  24.18899
 Alpha virt. eigenvalues --   24.21126  24.22198  24.24500  24.32037  24.34126
 Alpha virt. eigenvalues --   35.75002  50.14853
          Condensed to atoms (all electrons):
               1          2          3          4          5          6
     1  C    8.073608  -1.326190  -0.434501   0.378149  -0.490280   0.540761
     2  C   -1.326190   8.018601   0.162648  -1.116115   1.055075  -1.248741
     3  C   -0.434501   0.162648   7.639089   0.530696  -1.964194   0.458649
     4  C    0.378149  -1.116115   0.530696   6.784110  -0.556363   0.476556
     5  C   -0.490280   1.055075  -1.964194  -0.556363   9.603409   0.208322
     6  C    0.540761  -1.248741   0.458649   0.476556   0.208322   6.853139
     7  H   -0.110321   0.450238  -0.056795  -0.010334   0.052016  -0.016252
     8  H    0.006311  -0.030613   0.397689  -0.058420   0.015932   0.005966
     9  H    0.011490  -0.006257  -0.106824   0.392901  -0.021427  -0.004322
    10  C   -0.442486   0.079355  -0.135981  -0.470424  -0.208491  -0.286599
    11  O   -0.161318   0.042350  -0.015252   0.017270  -0.185828   0.165574
    12  C    0.017297  -0.067048  -0.059844  -0.073732  -0.457576  -0.341749
    13  H   -0.000926   0.001193  -0.014563  -0.020780   0.088265   0.000524
    14  H   -0.006917   0.004537   0.020318   0.039638  -0.106768  -0.007457
    15  H    0.000010  -0.003436   0.009291   0.006402  -0.019520   0.004108
    16  C    0.020572   0.017289   0.036350   0.076949   0.157112   0.050165
    17  H   -0.002674   0.001236  -0.014928  -0.030460  -0.016225  -0.004405
    18  H   -0.001114   0.003698   0.004483   0.019762   0.047275   0.019438
    19  H    0.003813   0.005390  -0.002263  -0.015608  -0.034362  -0.007608
    20  C   -0.174633   0.167632   0.117125   0.179244  -1.570613  -0.687503
    21  C    0.056093   0.161317   0.078966  -0.136330  -0.340377  -0.547828
    22  C    0.242447   0.026982  -0.124973  -0.356546   0.352878  -0.083765
    23  C   -0.223093  -0.169719   0.063485   0.091237  -0.226891   0.206597
    24  C    0.025759  -0.022725  -0.019623  -0.012242   0.216810   0.202535
    25  H    0.000205   0.000803   0.002315   0.002634   0.008046   0.001634
    26  C   -0.190513  -0.039388   0.015913   0.032816   0.138364  -0.073040
    27  H    0.000275  -0.000221  -0.000007   0.000499  -0.000333   0.003794
    28  H   -0.000565   0.000881  -0.000226  -0.001199  -0.004132  -0.005235
    29  B    0.013482   0.099585   0.111958   0.044397  -0.008108   0.051281
    30  N    0.018543   0.023694  -0.007965  -0.015927  -0.040410  -0.044575
    31  C    0.013091   0.000673  -0.002030   0.000342   0.001148   0.064084
    32  H   -0.004293  -0.001450  -0.000088   0.000981   0.000040   0.005032
    33  H    0.003622   0.004298  -0.000484  -0.000770   0.000632   0.000895
    34  H   -0.009166   0.003234   0.002123  -0.003268   0.008380  -0.026587
    35  C    0.002438   0.001875  -0.001014  -0.004594  -0.022643  -0.027849
    36  H    0.000548  -0.000334   0.000098  -0.000191  -0.000357  -0.002545
    37  H   -0.000386  -0.000307   0.000118   0.000300   0.001166  -0.000399
    38  H   -0.000695  -0.000453   0.000043  -0.000016  -0.000415  -0.001013
    39  H   -0.054420  -0.121370   0.005054   0.012578  -0.019855   0.126705
    40  H   -0.205063   0.112564   0.045969   0.019949  -0.033086  -0.038800
               7          8          9         10         11         12
     1  C   -0.110321   0.006311   0.011490  -0.442486  -0.161318   0.017297
     2  C    0.450238  -0.030613  -0.006257   0.079355   0.042350  -0.067048
     3  C   -0.056795   0.397689  -0.106824  -0.135981  -0.015252  -0.059844
     4  C   -0.010334  -0.058420   0.392901  -0.470424   0.017270  -0.073732
     5  C    0.052016   0.015932  -0.021427  -0.208491  -0.185828  -0.457576
     6  C   -0.016252   0.005966  -0.004322  -0.286599   0.165574  -0.341749
     7  H    0.488849  -0.007577   0.003134   0.009700  -0.000221  -0.000755
     8  H   -0.007577   0.447139  -0.011969  -0.006003   0.000565  -0.001366
     9  H    0.003134  -0.011969   0.506528   0.017701  -0.000811   0.028589
    10  C    0.009700  -0.006003   0.017701   9.480383   0.034902  -0.308588
    11  O   -0.000221   0.000565  -0.000811   0.034902   8.257051  -0.005456
    12  C   -0.000755  -0.001366   0.028589  -0.308588  -0.005456   7.399938
    13  H    0.000027  -0.000217   0.003645  -0.013373  -0.000254   0.409042
    14  H   -0.000459   0.000453   0.004231   0.021905  -0.000457   0.347658
    15  H   -0.000268   0.000293  -0.006436  -0.007343  -0.000715   0.422646
    16  C   -0.000563   0.001157  -0.003904  -0.602771  -0.016807  -0.605209
    17  H    0.000135  -0.000640   0.000223   0.008604  -0.003812  -0.029867
    18  H    0.000074   0.000020  -0.001356   0.019660  -0.001329  -0.046074
    19  H   -0.000044   0.000015   0.000804   0.049049   0.010620   0.071447
    20  C    0.003740  -0.002089   0.008601   0.454726  -0.146426  -0.039562
    21  C    0.001737  -0.000917  -0.003615  -0.269796   0.193281  -0.266532
    22  C    0.001208   0.000554   0.010340  -0.960973   0.029001   0.042957
    23  C   -0.001805   0.000214   0.001715  -0.217660  -0.190984   0.072423
    24  C   -0.000158   0.000458   0.003383  -0.378949   0.050749  -0.152615
    25  H    0.000065  -0.000035  -0.000026   0.018628  -0.003477   0.015214
    26  C   -0.001755   0.000016  -0.002721   0.358308   0.040596   0.066868
    27  H    0.000001   0.000004   0.000039  -0.006711   0.001437  -0.005107
    28  H    0.000005  -0.000003  -0.000035   0.011973  -0.002793   0.002974
    29  B   -0.036936   0.002972  -0.000048  -0.056883  -0.033953  -0.002574
    30  N    0.000759  -0.000105   0.000101   0.001011   0.029959   0.004971
    31  C    0.000392  -0.000032   0.000145  -0.067190  -0.032655  -0.005739
    32  H    0.000071  -0.000013   0.000039   0.002003   0.001448   0.000112
    33  H    0.000114   0.000001   0.000016  -0.007800  -0.001742  -0.000511
    34  H   -0.000733   0.000074  -0.000476  -0.001123   0.001554  -0.004059
    35  C   -0.000063  -0.000021   0.000089   0.025726  -0.016187   0.009333
    36  H   -0.000055   0.000004  -0.000013   0.002189  -0.001853   0.000469
    37  H    0.000001   0.000000   0.000005  -0.001065   0.001884  -0.000365
    38  H   -0.000004  -0.000000   0.000007   0.000158  -0.000878   0.000145
    39  H   -0.008210   0.000253  -0.000171   0.026582  -0.013324   0.003797
    40  H   -0.004679   0.001076   0.000210  -0.011034  -0.004634  -0.000331
              13         14         15         16         17         18
     1  C   -0.000926  -0.006917   0.000010   0.020572  -0.002674  -0.001114
     2  C    0.001193   0.004537  -0.003436   0.017289   0.001236   0.003698
     3  C   -0.014563   0.020318   0.009291   0.036350  -0.014928   0.004483
     4  C   -0.020780   0.039638   0.006402   0.076949  -0.030460   0.019762
     5  C    0.088265  -0.106768  -0.019520   0.157112  -0.016225   0.047275
     6  C    0.000524  -0.007457   0.004108   0.050165  -0.004405   0.019438
     7  H    0.000027  -0.000459  -0.000268  -0.000563   0.000135   0.000074
     8  H   -0.000217   0.000453   0.000293   0.001157  -0.000640   0.000020
     9  H    0.003645   0.004231  -0.006436  -0.003904   0.000223  -0.001356
    10  C   -0.013373   0.021905  -0.007343  -0.602771   0.008604   0.019660
    11  O   -0.000254  -0.000457  -0.000715  -0.016807  -0.003812  -0.001329
    12  C    0.409042   0.347658   0.422646  -0.605209  -0.029867  -0.046074
    13  H    0.533644  -0.041795  -0.017574  -0.030766   0.006751  -0.010150
    14  H   -0.041795   0.542845  -0.019551  -0.011731  -0.008773   0.005966
    15  H   -0.017574  -0.019551   0.456846   0.006829   0.000134   0.000529
    16  C   -0.030766  -0.011731   0.006829   6.521134   0.342715   0.361658
    17  H    0.006751  -0.008773   0.000134   0.342715   0.518692  -0.026768
    18  H   -0.010150   0.005966   0.000529   0.361658  -0.026768   0.512086
    19  H    0.000836   0.002441  -0.004658   0.346206  -0.027660  -0.027740
    20  C   -0.094464   0.082276  -0.003803  -0.113002   0.057182  -0.004575
    21  C   -0.022887   0.010860   0.004718   0.024340   0.018076  -0.003287
    22  C    0.031496  -0.034754  -0.020317   0.068800   0.028780  -0.037483
    23  C   -0.008997  -0.003050  -0.000059  -0.023235  -0.000990   0.002773
    24  C    0.015217  -0.011549  -0.001631   0.192325   0.004035  -0.020856
    25  H    0.006220   0.002677  -0.006794  -0.003704  -0.000386   0.000462
    26  C    0.010478   0.000606   0.000582  -0.067672   0.002050  -0.002644
    27  H    0.000235  -0.000155   0.000085   0.002176   0.000021  -0.000426
    28  H   -0.000069  -0.000013  -0.000083  -0.003555   0.000034  -0.000138
    29  B   -0.000349  -0.000401  -0.000501   0.000074   0.000167   0.000341
    30  N    0.000063   0.000642  -0.000155   0.018938  -0.000745  -0.001223
    31  C   -0.000380   0.000174   0.000051   0.009950  -0.000457   0.000854
    32  H   -0.000010  -0.000015  -0.000028  -0.001317  -0.000056   0.000139
    33  H   -0.000044   0.000026  -0.000007   0.001666  -0.000040   0.000165
    34  H    0.000460   0.000082   0.000385   0.014057   0.000146  -0.000754
    35  C    0.000078  -0.000098  -0.000010  -0.008792   0.000064  -0.000369
    36  H    0.000009  -0.000010   0.000001  -0.000920   0.000021  -0.000036
    37  H   -0.000027   0.000001   0.000013   0.000469  -0.000012   0.000059
    38  H    0.000045  -0.000001   0.000002   0.000533  -0.000003  -0.000031
    39  H   -0.000005   0.000068   0.000269  -0.003427  -0.000017  -0.000175
    40  H   -0.000050  -0.000135  -0.000046  -0.000919   0.000100   0.000040
              19         20         21         22         23         24
     1  C    0.003813  -0.174633   0.056093   0.242447  -0.223093   0.025759
     2  C    0.005390   0.167632   0.161317   0.026982  -0.169719  -0.022725
     3  C   -0.002263   0.117125   0.078966  -0.124973   0.063485  -0.019623
     4  C   -0.015608   0.179244  -0.136330  -0.356546   0.091237  -0.012242
     5  C   -0.034362  -1.570613  -0.340377   0.352878  -0.226891   0.216810
     6  C   -0.007608  -0.687503  -0.547828  -0.083765   0.206597   0.202535
     7  H   -0.000044   0.003740   0.001737   0.001208  -0.001805  -0.000158
     8  H    0.000015  -0.002089  -0.000917   0.000554   0.000214   0.000458
     9  H    0.000804   0.008601  -0.003615   0.010340   0.001715   0.003383
    10  C    0.049049   0.454726  -0.269796  -0.960973  -0.217660  -0.378949
    11  O    0.010620  -0.146426   0.193281   0.029001  -0.190984   0.050749
    12  C    0.071447  -0.039562  -0.266532   0.042957   0.072423  -0.152615
    13  H    0.000836  -0.094464  -0.022887   0.031496  -0.008997   0.015217
    14  H    0.002441   0.082276   0.010860  -0.034754  -0.003050  -0.011549
    15  H   -0.004658  -0.003803   0.004718  -0.020317  -0.000059  -0.001631
    16  C    0.346206  -0.113002   0.024340   0.068800  -0.023235   0.192325
    17  H   -0.027660   0.057182   0.018076   0.028780  -0.000990   0.004035
    18  H   -0.027740  -0.004575  -0.003287  -0.037483   0.002773  -0.020856
    19  H    0.520059  -0.047797  -0.001901   0.004461  -0.007610  -0.013221
    20  C   -0.047797  11.417456  -0.099359  -2.355219  -1.846381  -1.872817
    21  C   -0.001901  -0.099359   7.016491   0.671058   1.179858   0.052393
    22  C    0.004461  -2.355219   0.671058   8.891800   1.037601   1.150096
    23  C   -0.007610  -1.846381   1.179858   1.037601  11.138257  -1.341015
    24  C   -0.013221  -1.872817   0.052393   1.150096  -1.341015   8.408087
    25  H    0.001339  -0.020486   0.008917   0.412283   0.017202  -0.070598
    26  C   -0.002874   2.160293  -1.691671  -2.780340  -3.151425   0.031596
    27  H   -0.000239  -0.011357   0.020786  -0.076750   0.018063   0.395237
    28  H    0.000695   0.044421   0.006400  -0.013155  -0.078784  -0.081261
    29  B   -0.002119  -0.055982  -0.003132   0.045015  -0.000227   0.010334
    30  N    0.001600  -0.075148  -0.055221   0.113142  -0.078690   0.025853
    31  C   -0.005478  -0.088214  -0.029266   0.065745  -0.071753   0.033171
    32  H    0.000529  -0.002231   0.021902   0.005488   0.002560  -0.008540
    33  H   -0.000953  -0.006516  -0.010430   0.008478   0.014972   0.008217
    34  H   -0.008309   0.052044  -0.042422  -0.043889  -0.028007   0.015414
    35  C    0.003071  -0.055272   0.150921  -0.003527   0.183593  -0.313347
    36  H    0.000289   0.004955  -0.004798  -0.007416   0.011116  -0.013439
    37  H   -0.000318  -0.005901  -0.000668   0.010573  -0.001849   0.033548
    38  H    0.000129  -0.000704   0.005610  -0.009141  -0.027955  -0.015285
    39  H   -0.000157  -0.004269  -0.042417  -0.016679   0.036717  -0.003238
    40  H   -0.000142   0.000463   0.006581   0.005904  -0.016728   0.000590
              25         26         27         28         29         30
     1  C    0.000205  -0.190513   0.000275  -0.000565   0.013482   0.018543
     2  C    0.000803  -0.039388  -0.000221   0.000881   0.099585   0.023694
     3  C    0.002315   0.015913  -0.000007  -0.000226   0.111958  -0.007965
     4  C    0.002634   0.032816   0.000499  -0.001199   0.044397  -0.015927
     5  C    0.008046   0.138364  -0.000333  -0.004132  -0.008108  -0.040410
     6  C    0.001634  -0.073040   0.003794  -0.005235   0.051281  -0.044575
     7  H    0.000065  -0.001755   0.000001   0.000005  -0.036936   0.000759
     8  H   -0.000035   0.000016   0.000004  -0.000003   0.002972  -0.000105
     9  H   -0.000026  -0.002721   0.000039  -0.000035  -0.000048   0.000101
    10  C    0.018628   0.358308  -0.006711   0.011973  -0.056883   0.001011
    11  O   -0.003477   0.040596   0.001437  -0.002793  -0.033953   0.029959
    12  C    0.015214   0.066868  -0.005107   0.002974  -0.002574   0.004971
    13  H    0.006220   0.010478   0.000235  -0.000069  -0.000349   0.000063
    14  H    0.002677   0.000606  -0.000155  -0.000013  -0.000401   0.000642
    15  H   -0.006794   0.000582   0.000085  -0.000083  -0.000501  -0.000155
    16  C   -0.003704  -0.067672   0.002176  -0.003555   0.000074   0.018938
    17  H   -0.000386   0.002050   0.000021   0.000034   0.000167  -0.000745
    18  H    0.000462  -0.002644  -0.000426  -0.000138   0.000341  -0.001223
    19  H    0.001339  -0.002874  -0.000239   0.000695  -0.002119   0.001600
    20  C   -0.020486   2.160293  -0.011357   0.044421  -0.055982  -0.075148
    21  C    0.008917  -1.691671   0.020786   0.006400  -0.003132  -0.055221
    22  C    0.412283  -2.780340  -0.076750  -0.013155   0.045015   0.113142
    23  C    0.017202  -3.151425   0.018063  -0.078784  -0.000227  -0.078690
    24  C   -0.070598   0.031596   0.395237  -0.081261   0.010334   0.025853
    25  H    0.513974  -0.050021  -0.014496   0.001377   0.000699   0.003374
    26  C   -0.050021  11.942785  -0.029968   0.496703  -0.092006  -0.601317
    27  H   -0.014496  -0.029968   0.465656  -0.009876   0.000263  -0.002848
    28  H    0.001377   0.496703  -0.009876   0.505238  -0.001217  -0.036664
    29  B    0.000699  -0.092006   0.000263  -0.001217   4.148447   0.042252
    30  N    0.003374  -0.601317  -0.002848  -0.036664   0.042252   7.257729
    31  C    0.001448  -0.252932   0.001090  -0.011230   0.052301   0.283508
    32  H    0.000188  -0.026432  -0.000666   0.001638   0.015503  -0.071393
    33  H    0.000132  -0.020991   0.000127  -0.001696  -0.002864  -0.056321
    34  H   -0.001087   0.136403   0.000179   0.000850  -0.045225  -0.070204
    35  C   -0.000496  -0.430889   0.000899   0.007566  -0.013261   0.342585
    36  H   -0.000133   0.051873   0.000083   0.005879  -0.008645  -0.086223
    37  H    0.000070  -0.017164   0.000386  -0.009892   0.003019  -0.031883
    38  H   -0.000125   0.032881  -0.000015  -0.007594  -0.002325  -0.064857
    39  H   -0.000210   0.038975  -0.000100   0.000027   0.408765  -0.033063
    40  H    0.000073  -0.012505   0.000016  -0.000114   0.512115   0.006008
              31         32         33         34         35         36
     1  C    0.013091  -0.004293   0.003622  -0.009166   0.002438   0.000548
     2  C    0.000673  -0.001450   0.004298   0.003234   0.001875  -0.000334
     3  C   -0.002030  -0.000088  -0.000484   0.002123  -0.001014   0.000098
     4  C    0.000342   0.000981  -0.000770  -0.003268  -0.004594  -0.000191
     5  C    0.001148   0.000040   0.000632   0.008380  -0.022643  -0.000357
     6  C    0.064084   0.005032   0.000895  -0.026587  -0.027849  -0.002545
     7  H    0.000392   0.000071   0.000114  -0.000733  -0.000063  -0.000055
     8  H   -0.000032  -0.000013   0.000001   0.000074  -0.000021   0.000004
     9  H    0.000145   0.000039   0.000016  -0.000476   0.000089  -0.000013
    10  C   -0.067190   0.002003  -0.007800  -0.001123   0.025726   0.002189
    11  O   -0.032655   0.001448  -0.001742   0.001554  -0.016187  -0.001853
    12  C   -0.005739   0.000112  -0.000511  -0.004059   0.009333   0.000469
    13  H   -0.000380  -0.000010  -0.000044   0.000460   0.000078   0.000009
    14  H    0.000174  -0.000015   0.000026   0.000082  -0.000098  -0.000010
    15  H    0.000051  -0.000028  -0.000007   0.000385  -0.000010   0.000001
    16  C    0.009950  -0.001317   0.001666   0.014057  -0.008792  -0.000920
    17  H   -0.000457  -0.000056  -0.000040   0.000146   0.000064   0.000021
    18  H    0.000854   0.000139   0.000165  -0.000754  -0.000369  -0.000036
    19  H   -0.005478   0.000529  -0.000953  -0.008309   0.003071   0.000289
    20  C   -0.088214  -0.002231  -0.006516   0.052044  -0.055272   0.004955
    21  C   -0.029266   0.021902  -0.010430  -0.042422   0.150921  -0.004798
    22  C    0.065745   0.005488   0.008478  -0.043889  -0.003527  -0.007416
    23  C   -0.071753   0.002560   0.014972  -0.028007   0.183593   0.011116
    24  C    0.033171  -0.008540   0.008217   0.015414  -0.313347  -0.013439
    25  H    0.001448   0.000188   0.000132  -0.001087  -0.000496  -0.000133
    26  C   -0.252932  -0.026432  -0.020991   0.136403  -0.430889   0.051873
    27  H    0.001090  -0.000666   0.000127   0.000179   0.000899   0.000083
    28  H   -0.011230   0.001638  -0.001696   0.000850   0.007566   0.005879
    29  B    0.052301   0.015503  -0.002864  -0.045225  -0.013261  -0.008645
    30  N    0.283508  -0.071393  -0.056321  -0.070204   0.342585  -0.086223
    31  C    5.494431   0.448443   0.402654   0.358152  -0.186527  -0.016079
    32  H    0.448443   0.587980  -0.051384  -0.059455  -0.025316  -0.009328
    33  H    0.402654  -0.051384   0.550273  -0.004054  -0.011097   0.002317
    34  H    0.358152  -0.059455  -0.004054   0.555951   0.003812   0.008549
    35  C   -0.186527  -0.025316  -0.011097   0.003812   5.500964   0.419588
    36  H   -0.016079  -0.009328   0.002317   0.008549   0.419588   0.521707
    37  H   -0.001723   0.020414   0.003165  -0.005652   0.360822  -0.059757
    38  H    0.007837  -0.001549  -0.002804  -0.000976   0.441385   0.000402
    39  H   -0.016951  -0.008746  -0.001963   0.023778   0.014203   0.006100
    40  H    0.005150   0.000579   0.002066  -0.008948  -0.000583  -0.000821
              37         38         39         40
     1  C   -0.000386  -0.000695  -0.054420  -0.205063
     2  C   -0.000307  -0.000453  -0.121370   0.112564
     3  C    0.000118   0.000043   0.005054   0.045969
     4  C    0.000300  -0.000016   0.012578   0.019949
     5  C    0.001166  -0.000415  -0.019855  -0.033086
     6  C   -0.000399  -0.001013   0.126705  -0.038800
     7  H    0.000001  -0.000004  -0.008210  -0.004679
     8  H    0.000000  -0.000000   0.000253   0.001076
     9  H    0.000005   0.000007  -0.000171   0.000210
    10  C   -0.001065   0.000158   0.026582  -0.011034
    11  O    0.001884  -0.000878  -0.013324  -0.004634
    12  C   -0.000365   0.000145   0.003797  -0.000331
    13  H   -0.000027   0.000045  -0.000005  -0.000050
    14  H    0.000001  -0.000001   0.000068  -0.000135
    15  H    0.000013   0.000002   0.000269  -0.000046
    16  C    0.000469   0.000533  -0.003427  -0.000919
    17  H   -0.000012  -0.000003  -0.000017   0.000100
    18  H    0.000059  -0.000031  -0.000175   0.000040
    19  H   -0.000318   0.000129  -0.000157  -0.000142
    20  C   -0.005901  -0.000704  -0.004269   0.000463
    21  C   -0.000668   0.005610  -0.042417   0.006581
    22  C    0.010573  -0.009141  -0.016679   0.005904
    23  C   -0.001849  -0.027955   0.036717  -0.016728
    24  C    0.033548  -0.015285  -0.003238   0.000590
    25  H    0.000070  -0.000125  -0.000210   0.000073
    26  C   -0.017164   0.032881   0.038975  -0.012505
    27  H    0.000386  -0.000015  -0.000100   0.000016
    28  H   -0.009892  -0.007594   0.000027  -0.000114
    29  B    0.003019  -0.002325   0.408765   0.512115
    30  N   -0.031883  -0.064857  -0.033063   0.006008
    31  C   -0.001723   0.007837  -0.016951   0.005150
    32  H    0.020414  -0.001549  -0.008746   0.000579
    33  H    0.003165  -0.002804  -0.001963   0.002066
    34  H   -0.005652  -0.000976   0.023778  -0.008948
    35  C    0.360822   0.441385   0.014203  -0.000583
    36  H   -0.059757   0.000402   0.006100  -0.000821
    37  H    0.604922  -0.051210  -0.002530   0.000157
    38  H   -0.051210   0.530905   0.001900  -0.000194
    39  H   -0.002530   0.001900   0.626139  -0.035728
    40  H    0.000157  -0.000194  -0.035728   0.660313
 Mulliken charges:
               1
     1  C    0.411039
     2  C   -0.290778
     3  C   -0.740826
     4  C   -0.224092
     5  C    0.373383
     6  C    0.010511
     7  H    0.245721
     8  H    0.238854
     9  H    0.176474
    10  C   -0.161318
    11  O   -0.037075
    12  C   -0.441222
    13  H    0.169452
    14  H    0.166684
    15  H    0.199745
    16  C   -0.773169
    17  H    0.179753
    18  H    0.187048
    19  H    0.188270
    20  C    0.634166
    21  C   -0.117452
    22  C   -0.332160
    23  C   -0.361477
    24  C   -0.522697
    25  H    0.152096
    26  C   -0.019836
    27  H    0.247923
    28  H    0.182867
    29  B   -0.196213
    30  N    0.200203
    31  C   -0.456200
    32  H    0.157219
    33  H    0.178636
    34  H    0.178768
    35  C   -0.347059
    36  H    0.176756
    37  H    0.150014
    38  H    0.166260
    39  H    0.055115
    40  H   -0.005381
 Sum of Mulliken charges =  -0.00000
 Mulliken charges with hydrogens summed into heavy atoms:
               1
     1  C    0.411039
     2  C   -0.045057
     3  C   -0.501972
     4  C   -0.047619
     5  C    0.373383
     6  C    0.010511
    10  C   -0.161318
    11  O   -0.037075
    12  C    0.094659
    16  C   -0.218098
    20  C    0.634166
    21  C   -0.117452
    22  C   -0.180064
    23  C   -0.361477
    24  C   -0.274775
    26  C    0.163031
    29  B   -0.146479
    30  N    0.200203
    31  C    0.058423
    35  C    0.145970
 Electronic spatial extent (au):  <R**2>=          16756.8363
 Charge=             -0.0000 electrons
 Dipole moment (field-independent basis, Debye):
    X=              0.4242    Y=              1.8771    Z=             -0.6219  Tot=              2.0224
 Quadrupole moment (field-independent basis, Debye-Ang):
   XX=           -108.8659   YY=           -107.2017   ZZ=           -118.7898
   XY=              0.6011   XZ=              6.8369   YZ=             -3.1367
 Traceless Quadrupole moment (field-independent basis, Debye-Ang):
   XX=              2.7533   YY=              4.4174   ZZ=             -7.1707
   XY=              0.6011   XZ=              6.8369   YZ=             -3.1367
 Octapole moment (field-independent basis, Debye-Ang**2):
  XXX=           1095.5967  YYY=          -1094.6192  ZZZ=            168.8633  XYY=            411.3752
  XXY=           -387.6633  XXZ=             16.2427  XZZ=            380.7017  YZZ=           -380.9482
  YYZ=             35.3470  XYZ=             15.4109
 Hexadecapole moment (field-independent basis, Debye-Ang**3):
 XXXX=         -10674.8260 YYYY=          -9428.9275 ZZZZ=          -1813.6236 XXXY=           3715.2679
 XXXZ=           -916.1389 YYYX=           3799.8119 YYYZ=            824.5951 ZZZX=          -1158.1063
 ZZZY=            911.5013 XXYY=          -3703.3243 XXZZ=          -2059.4398 YYZZ=          -1869.4797
 XXYZ=            239.1529 YYXZ=           -334.3896 ZZXY=           1149.6268
 N-N= 1.553301845183D+03 E-N=-4.999223252769D+03  KE= 8.110655012657D+02
 Breneman (CHELPG) radii used.
 Generate Potential Derived Charges using the Breneman model, NDens= 1.
 Grid spacing= 0.300 Box extension= 2.800
 NStep X,Y,Z=   51     45     40   Total possible points=       91800
 Number of Points to Fit=   21378

 **********************************************************************

            Electrostatic Properties Using The SCF Density.

 **********************************************************************

       Atomic Center    1 is at  -2.098413  1.422043  1.033791
       Atomic Center    2 is at  -0.732699  1.282929  1.335472
       Atomic Center    3 is at   0.183254  2.272919  1.023738
       Atomic Center    4 is at  -0.256892  3.448466  0.421649
       Atomic Center    5 is at  -1.600471  3.658117  0.123780
       Atomic Center    6 is at  -2.490798  2.626238  0.421577
       Atomic Center    7 is at  -0.398866  0.367090  1.811986
       Atomic Center    8 is at   1.235057  2.143545  1.249946
       Atomic Center    9 is at   0.468834  4.220198  0.194487
       Atomic Center   10 is at  -2.166480  4.967596 -0.416633
       Atomic Center   11 is at  -3.813404  2.771768  0.131063
       Atomic Center   12 is at  -1.105261  5.798262 -1.141402
       Atomic Center   13 is at  -1.529533  6.740042 -1.494190
       Atomic Center   14 is at  -0.292168  6.062243 -0.462166
       Atomic Center   15 is at  -0.686812  5.261903 -1.996791
       Atomic Center   16 is at  -2.707085  5.787238  0.779378
       Atomic Center   17 is at  -1.892810  6.030191  1.468089
       Atomic Center   18 is at  -3.156436  6.718334  0.422978
       Atomic Center   19 is at  -3.467582  5.229301  1.330606
       Atomic Center   20 is at  -3.343661  4.618761 -1.323410
       Atomic Center   21 is at  -4.149972  3.551917 -0.949369
       Atomic Center   22 is at  -3.683530  5.332486 -2.473265
       Atomic Center   23 is at  -5.317182  3.190006 -1.647801
       Atomic Center   24 is at  -4.813112  4.987669 -3.196781
       Atomic Center   25 is at  -3.069268  6.158989 -2.805777
       Atomic Center   26 is at  -5.628675  3.940345 -2.783795
       Atomic Center   27 is at  -5.074133  5.546229 -4.088538
       Atomic Center   28 is at  -6.513677  3.701967 -3.359122
       Atomic Center   29 is at  -3.078362  0.274267  1.335740
       Atomic Center   30 is at  -6.074179  2.081938 -1.229601
       Atomic Center   31 is at  -6.643712  2.159521  0.111101
       Atomic Center   32 is at  -7.491680  2.862259  0.149957
       Atomic Center   33 is at  -7.002622  1.169586  0.402192
       Atomic Center   34 is at  -5.890768  2.469305  0.831331
       Atomic Center   35 is at  -7.021717  1.547410 -2.187274
       Atomic Center   36 is at  -7.378008  0.583023 -1.819064
       Atomic Center   37 is at  -7.901256  2.195426 -2.339439
       Atomic Center   38 is at  -6.535782  1.384244 -3.150856
       Atomic Center   39 is at  -4.230522  0.327932  1.034504
       Atomic Center   40 is at  -2.654406 -0.702092  1.885078
   21378 points will be used for fitting atomic charges
 Fitting point charges to electrostatic potential
 Charges from ESP fit, RMS=   0.00411 RRMS=   0.37821:
 ESP charges:
               1
     1  C   -0.249536
     2  C   -0.071450
     3  C   -0.159575
     4  C   -0.067800
     5  C   -0.130182
     6  C    0.285681
     7  H    0.103322
     8  H    0.108183
     9  H    0.112830
    10  C    0.357148
    11  O   -0.258268
    12  C   -0.259631
    13  H    0.078272
    14  H    0.080585
    15  H    0.027686
    16  C   -0.163501
    17  H    0.024122
    18  H    0.027212
    19  H    0.044147
    20  C   -0.077818
    21  C    0.062470
    22  C   -0.161695
    23  C    0.273995
    24  C   -0.179256
    25  H    0.127660
    26  C   -0.187297
    27  H    0.123229
    28  H    0.134495
    29  B    0.499628
    30  N   -0.365177
    31  C    0.094251
    32  H   -0.017804
    33  H    0.056337
    34  H    0.036913
    35  C   -0.104203
    36  H    0.091801
    37  H    0.060778
    38  H    0.058007
    39  H   -0.215251
    40  H   -0.200310
 Sum of ESP charges =  -0.00000
 ESP charges with hydrogens summed into heavy atoms:
               1
     1  C   -0.249536
     2  C    0.031872
     3  C   -0.051392
     4  C    0.045030
     5  C   -0.130182
     6  C    0.285681
    10  C    0.357148
    11  O   -0.258268
    12  C   -0.073088
    16  C   -0.068020
    20  C   -0.077818
    21  C    0.062470
    22  C   -0.034035
    23  C    0.273995
    24  C   -0.056027
    26  C   -0.052802
    29  B    0.084067
    30  N   -0.365177
    31  C    0.169697
    35  C    0.106383
 Charge=  -0.00000 Dipole=     0.3663     1.8100    -0.6158 Tot=     1.9466
 -----------------------------------------------------------------

              Electrostatic Properties (Atomic Units)

 -----------------------------------------------------------------
    Center     Electric         -------- Electric Field --------
               Potential          X             Y             Z
 -----------------------------------------------------------------
    1 Atom    -14.791697
    2 Atom    -14.768158
    3 Atom    -14.773616
    4 Atom    -14.759441
    5 Atom    -14.761140
    6 Atom    -14.705405
    7 Atom     -1.106551
    8 Atom     -1.101114
    9 Atom     -1.091885
   10 Atom    -14.732847
   11 Atom    -22.322438
   12 Atom    -14.774809
   13 Atom     -1.110581
   14 Atom     -1.109210
   15 Atom     -1.113835
   16 Atom    -14.779545
   17 Atom     -1.117507
   18 Atom     -1.118430
   19 Atom     -1.121359
   20 Atom    -14.765544
   21 Atom    -14.718076
   22 Atom    -14.779420
   23 Atom    -14.737632
   24 Atom    -14.778764
   25 Atom     -1.105190
   26 Atom    -14.779932
   27 Atom     -1.108435
   28 Atom     -1.103955
   29 Atom    -11.475983
   30 Atom    -18.385828
   31 Atom    -14.760209
   32 Atom     -1.126935
   33 Atom     -1.122498
   34 Atom     -1.126119
   35 Atom    -14.752435
   36 Atom     -1.114830
   37 Atom     -1.118641
   38 Atom     -1.114507
   39 Atom     -1.176422
   40 Atom     -1.171449
 -----------------------------------------------------------------
 Unable to Open any file for archive entry.
 1\1\GINC-IRENE4762\SP\RwB97XD\GenECP\C17H20B1N1O1\PENASFRA\10-Apr-2024
 \0\\# wb97xd/genecp scrf=(solvent=toluene,pcm) nosymm pop=(chelpg) scf
 cyc=300\\h_xanthene_chelpg\\0,1\C,0,-2.098413,1.422043,1.033791\C,0,-0
 .732699,1.282929,1.335472\C,0,0.183254,2.272919,1.023738\C,0,-0.256892
 ,3.448466,0.421649\C,0,-1.600471,3.658117,0.12378\C,0,-2.490798,2.6262
 38,0.421577\H,0,-0.398866,0.36709,1.811986\H,0,1.235057,2.143545,1.249
 946\H,0,0.468834,4.220198,0.194487\C,0,-2.16648,4.967596,-0.416633\O,0
 ,-3.813404,2.771768,0.131063\C,0,-1.105261,5.798262,-1.141402\H,0,-1.5
 29533,6.740042,-1.49419\H,0,-0.292168,6.062243,-0.462166\H,0,-0.686812
 ,5.261903,-1.996791\C,0,-2.707085,5.787238,0.779378\H,0,-1.89281,6.030
 191,1.468089\H,0,-3.156436,6.718334,0.422978\H,0,-3.467582,5.229301,1.
 330606\C,0,-3.343661,4.618761,-1.32341\C,0,-4.149972,3.551917,-0.94936
 9\C,0,-3.68353,5.332486,-2.473265\C,0,-5.317182,3.190006,-1.647801\C,0
 ,-4.813112,4.987669,-3.196781\H,0,-3.069268,6.158989,-2.805777\C,0,-5.
 628675,3.940345,-2.783795\H,0,-5.074133,5.546229,-4.088538\H,0,-6.5136
 77,3.701967,-3.359122\B,0,-3.078362,0.274267,1.33574\N,0,-6.074179,2.0
 81938,-1.229601\C,0,-6.643712,2.159521,0.111101\H,0,-7.49168,2.862259,
 0.149957\H,0,-7.002622,1.169586,0.402192\H,0,-5.890768,2.469305,0.8313
 31\C,0,-7.021717,1.54741,-2.187274\H,0,-7.378008,0.583023,-1.819064\H,
 0,-7.901256,2.195426,-2.339439\H,0,-6.535782,1.384244,-3.150856\H,0,-4
 .230522,0.327932,1.034504\H,0,-2.654406,-0.702092,1.885078\\Version=AS
 64L-G16RevC.02\HF=-814.6004821\RMSD=8.843e-09\Dipole=0.1668996,0.73849
 98,-0.2446798\Quadrupole=2.0469836,3.2842481,-5.3312318,0.4468669,5.08
 30762,-2.3320705\PG=C01 [X(C17H20B1N1O1)]\\@
 The archive entry for this job was punched.


 "PERFECTION IS NOT AN ACCIDENT"
         --  EAGLE ELECTRIC MANUFACTURING CO.,INC. NY
 Job cpu time:       0 days  2 hours  7 minutes 45.9 seconds.
 Elapsed time:       0 days  0 hours  1 minutes 18.0 seconds.
 File lengths (MBytes):  RWF=    303 Int=      0 D2E=      0 Chk=     21 Scr=      1
 Normal termination of Gaussian 16 at Wed Apr 10 16:28:57 2024.
