 Entering Gaussian System, Link 0=/ccc/products/gaussian-16-C.02/system/default/g16/g16
 Input=ipr_metriazole_chelpg.gjf
 Output=ipr_metriazole_chelpg.log
 Initial command:
 /ccc/products/gaussian-16-C.02/system/default/g16/l1.exe "/ccc/scratch/cont003/gen7343/penasfra/flp/b-n_flp/ipr_metriazole/Reactant/Gau-220241.inp" -scrdir="/ccc/scratch/cont003/gen7343/penasfra/flp/b-n_flp/ipr_metriazole/Reactant/"
 Entering Link 1 = /ccc/products/gaussian-16-C.02/system/default/g16/l1.exe PID=    220290.
  
 Copyright (c) 1988-2021, Gaussian, Inc.  All Rights Reserved.
  
 This is part of the Gaussian(R) 16 program.  It is based on
 the Gaussian(R) 09 system (copyright 2009, Gaussian, Inc.),
 the Gaussian(R) 03 system (copyright 2003, Gaussian, Inc.),
 the Gaussian(R) 98 system (copyright 1998, Gaussian, Inc.),
 the Gaussian(R) 94 system (copyright 1995, Gaussian, Inc.),
 the Gaussian 92(TM) system (copyright 1992, Gaussian, Inc.),
 the Gaussian 90(TM) system (copyright 1990, Gaussian, Inc.),
 the Gaussian 88(TM) system (copyright 1988, Gaussian, Inc.),
 the Gaussian 86(TM) system (copyright 1986, Carnegie Mellon
 University), and the Gaussian 82(TM) system (copyright 1983,
 Carnegie Mellon University). Gaussian is a federally registered
 trademark of Gaussian, Inc.
  
 This software contains proprietary and confidential information,
 including trade secrets, belonging to Gaussian, Inc.
  
 This software is provided under written license and may be
 used, copied, transmitted, or stored only in accord with that
 written license.
  
 The following legend is applicable only to US Government
 contracts under FAR:
  
                    RESTRICTED RIGHTS LEGEND
  
 Use, reproduction and disclosure by the US Government is
 subject to restrictions as set forth in subparagraphs (a)
 and (c) of the Commercial Computer Software - Restricted
 Rights clause in FAR 52.227-19.
  
 Gaussian, Inc.
 340 Quinnipiac St., Bldg. 40, Wallingford CT 06492
  
  
 ---------------------------------------------------------------
 Warning -- This program may not be used in any manner that
 competes with the business of Gaussian, Inc. or will provide
 assistance to any competitor of Gaussian, Inc.  The licensee
 of this program is prohibited from giving any competitor of
 Gaussian, Inc. access to this program.  By using this program,
 the user acknowledges that Gaussian, Inc. is engaged in the
 business of creating and licensing software in the field of
 computational chemistry and represents and warrants to the
 licensee that it is not a competitor of Gaussian, Inc. and that
 it will not use this program in any manner prohibited above.
 ---------------------------------------------------------------
  

 Cite this work as:
 Gaussian 16, Revision C.02,
 M. J. Frisch, G. W. Trucks, H. B. Schlegel, G. E. Scuseria, 
 M. A. Robb, J. R. Cheeseman, G. Scalmani, V. Barone, 
 G. A. Petersson, H. Nakatsuji, X. Li, M. Caricato, A. V. Marenich, 
 J. Bloino, B. G. Janesko, R. Gomperts, B. Mennucci, H. P. Hratchian, 
 J. V. Ortiz, A. F. Izmaylov, J. L. Sonnenberg, D. Williams-Young, 
 F. Ding, F. Lipparini, F. Egidi, J. Goings, B. Peng, A. Petrone, 
 T. Henderson, D. Ranasinghe, V. G. Zakrzewski, J. Gao, N. Rega, 
 G. Zheng, W. Liang, M. Hada, M. Ehara, K. Toyota, R. Fukuda, 
 J. Hasegawa, M. Ishida, T. Nakajima, Y. Honda, O. Kitao, H. Nakai, 
 T. Vreven, K. Throssell, J. A. Montgomery, Jr., J. E. Peralta, 
 F. Ogliaro, M. J. Bearpark, J. J. Heyd, E. N. Brothers, K. N. Kudin, 
 V. N. Staroverov, T. A. Keith, R. Kobayashi, J. Normand, 
 K. Raghavachari, A. P. Rendell, J. C. Burant, S. S. Iyengar, 
 J. Tomasi, M. Cossi, J. M. Millam, M. Klene, C. Adamo, R. Cammi, 
 J. W. Ochterski, R. L. Martin, K. Morokuma, O. Farkas, 
 J. B. Foresman, and D. J. Fox, Gaussian, Inc., Wallingford CT, 2019.
 
 ******************************************
 Gaussian 16:  AS64L-G16RevC.02  7-Dec-2021
                 9-Apr-2024 
 ******************************************
 %nprocshared=128
 Will use up to  128 processors via shared memory.
 %mem=30GB
 %chk=ipr_metriazole_chelpg.chk
 ----------------------------------------------------------------------
 # wb97xd/genecp scrf=(solvent=toluene,pcm) nosymm pop=(chelpg) scfcyc=
 300
 ----------------------------------------------------------------------
 1/38=1,172=1/1;
 2/12=2,15=1,17=6,18=5,40=1/2;
 3/5=7,11=2,16=1,17=8,25=1,30=1,70=2201,72=13,74=-58/1,2,3;
 4//1;
 5/5=2,7=300,38=5,53=13/2;
 6/7=2,8=2,9=2,10=2,15=8,20=3,28=1/1,2;
 99/5=1,9=1/99;
 ---------------------
 ipr_metriazole_chelpg
 ---------------------
 Symbolic Z-matrix:
 Charge =  0 Multiplicity = 1
 C                     2.49161   1.43341   0.60479 
 H                     1.49143   1.165     0.90171 
 C                     3.72747   0.86281   0.86223 
 N                     2.73417   2.50144  -0.16571 
 N                     4.05698   2.62123  -0.39542 
 N                     4.64903   1.65306   0.20951 
 B                     4.13847  -0.39518   1.67932 
 C                     1.8029    3.47147  -0.70976 
 H                     1.39041   4.08866   0.08908 
 H                     2.35415   4.09849  -1.40729 
 H                     0.9984    2.95787  -1.23584 
 C                     5.66852  -0.78472   1.77061 
 C                     6.14291  -0.68775   3.23228 
 C                     5.91032  -2.2008    1.22071 
 H                     6.02247   0.32365   3.63273 
 H                     5.5875   -1.37344   3.88143 
 H                     7.20382  -0.94871   3.30961 
 H                     5.61863  -2.28339   0.16913 
 H                     6.97122  -2.46422   1.29001 
 H                     5.34802  -2.95362   1.78357 
 C                     3.05015  -1.28652   2.41985 
 C                     2.09968  -1.96649   1.4181 
 C                     2.26461  -0.5013    3.48394 
 H                     1.49643  -1.23721   0.86905 
 H                     2.64846  -2.55811   0.67891 
 H                     1.41056  -2.64146   1.93707 
 H                     1.58752  -1.16559   4.03181 
 H                     2.93189  -0.03336   4.21414 
 H                     1.6574    0.29372   3.04155 
 H                     3.57459  -2.09169   2.94928 
 H                     6.26406  -0.08466   1.17719 
 
                          Input orientation:                          
 ---------------------------------------------------------------------
 Center     Atomic      Atomic             Coordinates (Angstroms)
 Number     Number       Type             X           Y           Z
 ---------------------------------------------------------------------
      1          6           0        2.491608    1.433407    0.604793
      2          1           0        1.491433    1.164997    0.901710
      3          6           0        3.727467    0.862811    0.862230
      4          7           0        2.734171    2.501440   -0.165705
      5          7           0        4.056981    2.621228   -0.395423
      6          7           0        4.649030    1.653061    0.209510
      7          5           0        4.138472   -0.395178    1.679319
      8          6           0        1.802902    3.471471   -0.709763
      9          1           0        1.390412    4.088658    0.089079
     10          1           0        2.354147    4.098485   -1.407291
     11          1           0        0.998397    2.957872   -1.235835
     12          6           0        5.668524   -0.784724    1.770606
     13          6           0        6.142906   -0.687751    3.232281
     14          6           0        5.910318   -2.200800    1.220712
     15          1           0        6.022472    0.323649    3.632728
     16          1           0        5.587503   -1.373440    3.881429
     17          1           0        7.203816   -0.948712    3.309606
     18          1           0        5.618627   -2.283391    0.169128
     19          1           0        6.971217   -2.464218    1.290006
     20          1           0        5.348015   -2.953624    1.783565
     21          6           0        3.050151   -1.286521    2.419847
     22          6           0        2.099679   -1.966485    1.418097
     23          6           0        2.264612   -0.501300    3.483938
     24          1           0        1.496425   -1.237214    0.869054
     25          1           0        2.648455   -2.558106    0.678905
     26          1           0        1.410557   -2.641457    1.937065
     27          1           0        1.587520   -1.165588    4.031814
     28          1           0        2.931886   -0.033363    4.214141
     29          1           0        1.657402    0.293722    3.041546
     30          1           0        3.574594   -2.091693    2.949282
     31          1           0        6.264062   -0.084663    1.177189
 ---------------------------------------------------------------------
                    Distance matrix (angstroms):
                    1          2          3          4          5
     1  C    0.000000
     2  H    1.077290   0.000000
     3  C    1.385352   2.256706   0.000000
     4  N    1.339104   2.114203   2.174487   0.000000
     5  N    2.204936   3.222608   2.186847   1.347941   0.000000
     6  N    2.204306   3.269215   1.378338   2.127726   1.286007
     7  B    2.685236   3.169485   1.555344   3.710333   3.661953
     8  C    2.521126   2.830844   3.602807   1.450593   2.429526
     9  H    2.920437   3.036177   4.057792   2.095200   3.081993
    10  H    3.342158   3.831594   4.184055   2.058278   2.470993
    11  H    2.818082   2.833123   4.029762   2.089598   3.189758
    12  C    4.046235   4.690893   2.703187   4.812338   4.346178
    13  C    4.973428   5.522720   3.722329   5.773796   5.334853
    14  C    5.027365   5.563892   3.778764   5.841329   5.412828
    15  H    4.781940   5.356925   3.637774   5.475746   5.036668
    16  H    5.310301   5.665702   4.192388   6.287726   6.049077
    17  H    5.932572   6.549584   4.621284   6.630163   6.031110
    18  H    4.876745   5.427871   3.735701   5.597036   5.178102
    19  H    5.977282   6.584072   4.666265   6.688005   6.098787
    20  H    5.366061   5.710861   4.247377   6.355278   6.123213
    21  C    3.317288   3.277847   2.739444   4.597126   4.920361
    22  C    3.517718   3.231532   3.311132   4.782610   5.307259
    23  C    3.476218   3.168951   3.297589   4.749403   5.292656
    24  H    2.862244   2.402438   3.063935   4.071888   4.800305
    25  H    3.995281   3.905104   3.591733   5.130275   5.473904
    26  H    4.421327   3.945579   4.336270   5.711653   6.335607
    27  H    4.395068   3.903641   4.328977   5.690437   6.327609
    28  H    3.920797   3.805676   3.559689   5.064323   5.436982
    29  H    2.816478   2.316369   3.059158   4.039791   4.794582
    30  H    4.369876   4.374716   3.620532   5.613050   5.799256
    31  H    4.106529   4.941207   2.726026   4.577272   3.829642
                    6          7          8          9         10
     6  N    0.000000
     7  B    2.572215   0.000000
     8  C    3.500303   5.110144   0.000000
     9  H    4.070040   5.494132   1.090512   0.000000
    10  H    3.722987   5.736199   1.087917   1.779889   0.000000
    11  H    4.137472   5.440693   1.089846   1.785427   1.780015
    12  C    3.069069   1.581499   6.261826   6.699226   6.702974
    13  C    4.104657   2.552459   7.188496   7.435052   7.667358
    14  C    4.179189   2.570998   7.264452   7.827351   7.696346
    15  H    3.920727   2.807486   6.824279   6.941810   7.287509
    16  H    4.850096   2.811757   7.673031   7.863333   8.268441
    17  H    4.786100   3.515760   8.053770   8.339218   8.440533
    18  H    4.054307   2.834940   6.960650   7.647694   7.339637
    19  H    4.848918   3.529438   8.120527   8.690673   8.465330
    20  H    4.918107   2.831873   7.750249   8.253947   8.299220
    21  C    4.010380   1.589754   5.829972   6.089315   6.643019
    22  C    4.589225   2.587261   5.846985   6.239720   6.695628
    23  C    4.587875   2.603702   5.795103   5.775553   6.714921
    24  H    4.327540   2.888939   4.975772   5.383727   5.864053
    25  H    4.685783   2.810558   6.244931   6.790437   6.982051
    26  H    5.649340   3.543123   6.672895   6.979248   7.583001
    27  H    5.650454   3.554591   6.635605   6.571995   7.608025
    28  H    4.672224   2.830562   6.148439   6.031860   7.000461
    29  H    4.337980   2.913066   4.918493   4.815588   5.895238
    30  H    4.762767   2.192927   6.890305   7.151794   7.667302
    31  H    2.562112   2.206057   6.009045   6.507923   6.282173
                   11         12         13         14         15
    11  H    0.000000
    12  C    6.697447   0.000000
    13  C    7.727910   1.539784   0.000000
    14  C    7.534818   1.538219   2.527810   0.000000
    15  H    7.475518   2.195739   1.094437   3.493314   0.000000
    16  H    8.124441   2.192880   1.095461   2.805022   1.769509
    17  H    8.627262   2.180031   1.095267   2.757597   1.766036
    18  H    7.126800   2.193906   3.493400   1.094410   4.353880
    19  H    8.453018   2.179148   2.759414   1.095307   3.763066
    20  H    7.936103   2.192492   2.804427   1.095323   3.822933
    21  C    5.965616   2.743937   3.253261   3.233324   3.591437
    22  C    5.701357   3.775907   4.612386   3.822935   5.053475
    23  C    5.987105   3.821316   3.890920   4.615373   3.850220
    24  H    4.719887   4.292313   5.241807   4.531513   5.528046
    25  H    6.067531   3.668448   4.714779   3.325804   5.330438
    26  H    6.449004   4.648166   5.281068   4.577684   5.739067
    27  H    6.715513   4.681102   4.649637   5.259329   4.695306
    28  H    6.510615   3.744942   3.420953   4.746521   3.164999
    29  H    5.082123   4.343666   4.595586   5.255984   4.405023
    30  H    7.046283   2.735322   2.940641   2.907828   3.506149
    31  H    6.542701   1.094027   2.145180   2.145941   2.500951
                   16         17         18         19         20
    16  H    0.000000
    17  H    1.766308   0.000000
    18  H    3.822324   3.762552   0.000000
    19  H    3.133677   2.535674   1.765946   0.000000
    20  H    2.637303   3.129292   1.768856   1.765759   0.000000
    21  C    2.929493   4.261305   3.557605   4.247148   2.909341
    22  C    4.310989   5.537678   3.747446   4.898574   3.414630
    23  C    3.458357   4.962490   5.041154   5.551443   4.290983
    24  H    5.082310   6.214003   4.310097   5.626374   4.314758
    25  H    4.505285   5.501095   3.026097   4.366753   2.943524
    26  H    4.778629   6.189596   4.578391   5.600986   3.952795
    27  H    4.008202   5.666692   5.693826   6.179656   4.732126
    28  H    2.993126   4.461551   5.351947   5.547596   4.502589
    29  H    4.350922   5.690185   5.530244   6.237849   5.074288
    30  H    2.331649   3.821975   3.456020   3.798555   2.290599
    31  H    3.071090   2.485341   2.503433   2.484970   3.072096
                   21         22         23         24         25
    21  C    0.000000
    22  C    1.539237   0.000000
    23  C    1.538159   2.538044   0.000000
    24  H    2.195781   1.094166   2.822995   0.000000
    25  H    2.192981   1.094338   3.499428   1.762976   0.000000
    26  H    2.181100   1.095356   2.775337   1.766329   1.767005
    27  H    2.179989   2.781233   1.095400   3.164882   3.782418
    28  H    2.191776   3.499627   1.094265   3.833981   4.353453
    29  H    2.196230   2.817753   1.093835   2.662593   3.833690
    30  H    1.097107   2.129690   2.128676   3.062069   2.495974
    31  H    3.649368   4.576175   4.635761   4.914640   4.408948
                   26         27         28         29         30
    26  H    0.000000
    27  H    2.568556   0.000000
    28  H    3.781755   1.767059   0.000000
    29  H    3.145805   1.764965   1.762462   0.000000
    30  H    2.451506   2.444997   2.499933   3.061755   0.000000
    31  H    5.538151   5.584562   4.508781   4.984006   3.794960
                   31
    31  H    0.000000
 Symmetry turned off by external request.
 Stoichiometry    C9H18BN3
 Framework group  C1[X(C9H18BN3)]
 Deg. of freedom    87
 Full point group                 C1      NOp   1
 Rotational constants (GHZ):           1.1375347           0.5016326           0.4111148
 General basis read from cards:  (5D, 7F)
 ======================================================================================================
                                       Pseudopotential Parameters
 ======================================================================================================
  Center     Atomic      Valence      Angular      Power
  Number     Number     Electrons     Momentum     of R      Exponent        Coefficient   SO-Coeffient
 ======================================================================================================
    1          6
                                   No pseudopotential on this center.
    2          1
                                   No pseudopotential on this center.
    3          6
                                   No pseudopotential on this center.
    4          7
                                   No pseudopotential on this center.
    5          7
                                   No pseudopotential on this center.
    6          7
                                   No pseudopotential on this center.
    7          5
                                   No pseudopotential on this center.
    8          6
                                   No pseudopotential on this center.
    9          1
                                   No pseudopotential on this center.
   10          1
                                   No pseudopotential on this center.
   11          1
                                   No pseudopotential on this center.
   12          6
                                   No pseudopotential on this center.
   13          6
                                   No pseudopotential on this center.
   14          6
                                   No pseudopotential on this center.
   15          1
                                   No pseudopotential on this center.
   16          1
                                   No pseudopotential on this center.
   17          1
                                   No pseudopotential on this center.
   18          1
                                   No pseudopotential on this center.
   19          1
                                   No pseudopotential on this center.
   20          1
                                   No pseudopotential on this center.
   21          6
                                   No pseudopotential on this center.
   22          6
                                   No pseudopotential on this center.
   23          6
                                   No pseudopotential on this center.
   24          1
                                   No pseudopotential on this center.
   25          1
                                   No pseudopotential on this center.
   26          1
                                   No pseudopotential on this center.
   27          1
                                   No pseudopotential on this center.
   28          1
                                   No pseudopotential on this center.
   29          1
                                   No pseudopotential on this center.
   30          1
                                   No pseudopotential on this center.
   31          1
                                   No pseudopotential on this center.
 ======================================================================================================
   412 basis functions,   630 primitive gaussians,   425 cartesian basis functions
    49 alpha electrons       49 beta electrons
       nuclear repulsion energy       798.2094071255 Hartrees.
 NAtoms=   31 NActive=   31 NUniq=   31 SFac= 1.00D+00 NAtFMM=   60 NAOKFM=F Big=F
 Integral buffers will be    131072 words long.
 Raffenetti 2 integral format.
 Two-electron integral symmetry is turned off.
 Nuclear repulsion after empirical dispersion term =      798.1855282664 Hartrees.
 ------------------------------------------------------------------------------
 Polarizable Continuum Model (PCM)
 =================================
 Model                : PCM.
 Atomic radii         : UFF (Universal Force Field).
 Polarization charges : Total charges.
 Charge compensation  : None.
 Solution method      : On-the-fly selection.
 Cavity type          : Scaled VdW (van der Waals Surface) (Alpha=1.100).
 Cavity algorithm     : GePol (No added spheres)
                        Default sphere list used, NSphG=   31.
                        Lebedev-Laikov grids with approx.  5.0 points / Ang**2.
                        Smoothing algorithm: York/Karplus (Gamma=1.0000).
                        Polarization charges: spherical gaussians, with
                                              point-specific exponents (IZeta= 3).
                        Self-potential: point-specific (ISelfS= 7).
                        Self-field    : sphere-specific E.n sum rule (ISelfD= 2).
 Solvent              : Toluene, Eps=   2.374100 Eps(inf)=   2.238315
 ------------------------------------------------------------------------------
 One-electron integrals computed using PRISM.
   1 Symmetry operations used in ECPInt.
 ECPInt:  NShTT=   14196 NPrTT=   43948 LenC2=   13475 LenP2D=   30996.
 LDataN:  DoStor=T MaxTD1= 4 Len=   56
 Number of processors reduced to 104 by ecpmxn.
 NBasis=   412 RedAO= T EigKep=  1.95D-06  NBF=   412
 NBsUse=   412 1.00D-06 EigRej= -1.00D+00 NBFU=   412
 ExpMin= 3.15D-02 ExpMax= 6.29D+03 ExpMxC= 9.49D+02 IAcc=3 IRadAn=         5 AccDes= 0.00D+00
 Harris functional with IExCor= 4639 and IRadAn=       5 diagonalized for initial guess.
 HarFok:  IExCor= 4639 AccDes= 0.00D+00 IRadAn=         5 IDoV= 1 UseB2=F ITyADJ=14
 ICtDFT=  3500011 ScaDFX=  1.000000  1.000000  1.000000  1.000000
 FoFCou: FMM=F IPFlag=           0 FMFlag=      100000 FMFlg1=           0
         NFxFlg=           0 DoJE=T BraDBF=F KetDBF=T FulRan=T
         wScrn=  0.000000 ICntrl=       500 IOpCl=  0 I1Cent=   200000004 NGrid=           0
         NMat0=    1 NMatS0=      1 NMatT0=    0 NMatD0=    1 NMtDS0=    0 NMtDT0=    0
 Symmetry not used in FoFCou.
 Requested convergence on RMS density matrix=1.00D-08 within 300 cycles.
 Requested convergence on MAX density matrix=1.00D-06.
 Requested convergence on             energy=1.00D-06.
 No special actions if energy rises.
 Inv3:  Mode=1 IEnd=    14231052.
 Iteration    1 A*A^-1 deviation from unit magnitude is 3.33D-15 for   2174.
 Iteration    1 A*A^-1 deviation from orthogonality  is 2.01D-15 for   2160    907.
 Iteration    1 A^-1*A deviation from unit magnitude is 3.33D-15 for   2174.
 Iteration    1 A^-1*A deviation from orthogonality  is 1.67D-15 for   2153   1729.
 Error on total polarization charges =  0.01039
 SCF Done:  E(RwB97XD) =  -542.863365221     A.U. after   15 cycles
            NFock= 15  Conv=0.71D-08     -V/T= 2.0045

 **********************************************************************

            Population analysis using the SCF Density.

 **********************************************************************

 Alpha  occ. eigenvalues --  -14.53501 -14.49583 -14.45873 -10.33916 -10.33872
 Alpha  occ. eigenvalues --  -10.29284 -10.27317 -10.27273 -10.26612 -10.26545
 Alpha  occ. eigenvalues --  -10.26356 -10.25344  -6.83799  -1.21592  -1.03023
 Alpha  occ. eigenvalues --   -0.91392  -0.88513  -0.86839  -0.84343  -0.78163
 Alpha  occ. eigenvalues --   -0.77205  -0.73636  -0.69247  -0.68509  -0.66487
 Alpha  occ. eigenvalues --   -0.63175  -0.59566  -0.56593  -0.54777  -0.54057
 Alpha  occ. eigenvalues --   -0.52473  -0.51673  -0.51506  -0.50844  -0.49324
 Alpha  occ. eigenvalues --   -0.49173  -0.47884  -0.46925  -0.45821  -0.43273
 Alpha  occ. eigenvalues --   -0.42264  -0.41453  -0.41063  -0.41040  -0.38206
 Alpha  occ. eigenvalues --   -0.37275  -0.36603  -0.34978  -0.34559
 Alpha virt. eigenvalues --    0.02137   0.03592   0.04530   0.04861   0.05331
 Alpha virt. eigenvalues --    0.06203   0.06640   0.07105   0.07532   0.07843
 Alpha virt. eigenvalues --    0.08063   0.09033   0.09247   0.09395   0.09887
 Alpha virt. eigenvalues --    0.10556   0.10689   0.11860   0.12085   0.12245
 Alpha virt. eigenvalues --    0.12580   0.13511   0.14036   0.14207   0.14946
 Alpha virt. eigenvalues --    0.14989   0.15408   0.16568   0.16892   0.17013
 Alpha virt. eigenvalues --    0.17238   0.17488   0.18164   0.18511   0.18962
 Alpha virt. eigenvalues --    0.19006   0.19411   0.19701   0.19959   0.20328
 Alpha virt. eigenvalues --    0.20805   0.21075   0.21223   0.21572   0.21818
 Alpha virt. eigenvalues --    0.21951   0.22683   0.22952   0.23074   0.23416
 Alpha virt. eigenvalues --    0.23613   0.24018   0.24666   0.24755   0.25047
 Alpha virt. eigenvalues --    0.25757   0.25877   0.26127   0.26829   0.27317
 Alpha virt. eigenvalues --    0.27563   0.27669   0.27987   0.28831   0.29010
 Alpha virt. eigenvalues --    0.29931   0.30746   0.30790   0.31035   0.31325
 Alpha virt. eigenvalues --    0.31854   0.32060   0.32113   0.32873   0.34126
 Alpha virt. eigenvalues --    0.34226   0.34458   0.35444   0.35569   0.35870
 Alpha virt. eigenvalues --    0.37575   0.37994   0.38206   0.38345   0.38785
 Alpha virt. eigenvalues --    0.39321   0.40114   0.40908   0.41770   0.41911
 Alpha virt. eigenvalues --    0.42433   0.42870   0.43129   0.43961   0.44873
 Alpha virt. eigenvalues --    0.45525   0.47046   0.49127   0.50813   0.51591
 Alpha virt. eigenvalues --    0.52385   0.52811   0.53175   0.54308   0.54507
 Alpha virt. eigenvalues --    0.55747   0.56081   0.56723   0.59184   0.59481
 Alpha virt. eigenvalues --    0.60453   0.60658   0.60881   0.62035   0.62929
 Alpha virt. eigenvalues --    0.64524   0.66203   0.67273   0.67464   0.67711
 Alpha virt. eigenvalues --    0.67808   0.68857   0.71142   0.71523   0.71622
 Alpha virt. eigenvalues --    0.73565   0.74497   0.74833   0.75425   0.76691
 Alpha virt. eigenvalues --    0.76747   0.77178   0.77780   0.78332   0.78932
 Alpha virt. eigenvalues --    0.79311   0.79612   0.80693   0.80827   0.81083
 Alpha virt. eigenvalues --    0.83406   0.84527   0.85706   0.86256   0.86679
 Alpha virt. eigenvalues --    0.87418   0.87571   0.88833   0.89792   0.90741
 Alpha virt. eigenvalues --    0.91614   0.92223   0.94308   0.95429   0.96028
 Alpha virt. eigenvalues --    0.96650   0.96921   0.97537   0.99752   1.01634
 Alpha virt. eigenvalues --    1.02067   1.04895   1.06938   1.08644   1.10949
 Alpha virt. eigenvalues --    1.11541   1.12550   1.12835   1.13564   1.15482
 Alpha virt. eigenvalues --    1.19530   1.20331   1.21768   1.23590   1.24083
 Alpha virt. eigenvalues --    1.25770   1.26900   1.30055   1.30952   1.31169
 Alpha virt. eigenvalues --    1.34859   1.36807   1.37407   1.43461   1.45378
 Alpha virt. eigenvalues --    1.47324   1.49082   1.50932   1.51386   1.52012
 Alpha virt. eigenvalues --    1.55446   1.55618   1.56941   1.57211   1.58430
 Alpha virt. eigenvalues --    1.59720   1.60053   1.61844   1.62321   1.62943
 Alpha virt. eigenvalues --    1.63328   1.65626   1.66037   1.66648   1.67711
 Alpha virt. eigenvalues --    1.68594   1.69040   1.70370   1.70551   1.71045
 Alpha virt. eigenvalues --    1.73354   1.73690   1.74361   1.76019   1.76685
 Alpha virt. eigenvalues --    1.76918   1.78240   1.79594   1.80990   1.82311
 Alpha virt. eigenvalues --    1.83569   1.84260   1.85071   1.85994   1.86495
 Alpha virt. eigenvalues --    1.86803   1.88370   1.89514   1.91140   1.91474
 Alpha virt. eigenvalues --    1.92428   1.95967   1.98063   1.99664   2.02717
 Alpha virt. eigenvalues --    2.04448   2.05053   2.09151   2.10646   2.11342
 Alpha virt. eigenvalues --    2.14204   2.14326   2.15496   2.17410   2.20281
 Alpha virt. eigenvalues --    2.21033   2.22805   2.23333   2.24733   2.25354
 Alpha virt. eigenvalues --    2.25825   2.28830   2.31578   2.34343   2.36921
 Alpha virt. eigenvalues --    2.37500   2.39121   2.41208   2.42447   2.43049
 Alpha virt. eigenvalues --    2.44102   2.45439   2.46889   2.48748   2.50816
 Alpha virt. eigenvalues --    2.53332   2.53831   2.56900   2.58178   2.60059
 Alpha virt. eigenvalues --    2.60485   2.61023   2.61221   2.61681   2.63147
 Alpha virt. eigenvalues --    2.63724   2.64279   2.64861   2.65974   2.66467
 Alpha virt. eigenvalues --    2.67484   2.69129   2.70093   2.72329   2.72939
 Alpha virt. eigenvalues --    2.74160   2.74653   2.75550   2.77687   2.78875
 Alpha virt. eigenvalues --    2.79874   2.82770   2.83104   2.84111   2.84546
 Alpha virt. eigenvalues --    2.86127   2.86998   2.87328   2.89008   2.91246
 Alpha virt. eigenvalues --    2.94461   2.97105   2.97467   2.98848   3.03791
 Alpha virt. eigenvalues --    3.05341   3.05888   3.06575   3.08693   3.10131
 Alpha virt. eigenvalues --    3.13201   3.13314   3.16540   3.20194   3.25549
 Alpha virt. eigenvalues --    3.25966   3.29745   3.31415   3.47496   3.51852
 Alpha virt. eigenvalues --    3.54826   3.64195   3.71620   3.75399   3.80899
 Alpha virt. eigenvalues --    3.83123   3.87718   3.88399   3.89221   3.89775
 Alpha virt. eigenvalues --    3.90493   3.90695   3.93394   3.94104   3.94556
 Alpha virt. eigenvalues --    3.95358   4.04815   4.05368   4.13754   4.16747
 Alpha virt. eigenvalues --    4.18426   4.22702   4.27369   4.35489   4.39894
 Alpha virt. eigenvalues --    4.40070   4.74150   4.95948   5.11486   5.75833
 Alpha virt. eigenvalues --   14.83959  23.91272  24.02580  24.04737  24.05907
 Alpha virt. eigenvalues --   24.10460  24.11567  24.14905  24.17026  24.25433
 Alpha virt. eigenvalues --   35.57536  35.64561  35.79443
          Condensed to atoms (all electrons):
               1          2          3          4          5          6
     1  C   10.079953   0.376805  -3.619488   0.215298  -0.354079   0.095100
     2  H    0.376805   0.492622   0.011581  -0.118468   0.070745  -0.037765
     3  C   -3.619488   0.011581  10.355035  -0.470969   0.608783   0.106658
     4  N    0.215298  -0.118468  -0.470969   7.163162  -0.286426   0.214277
     5  N   -0.354079   0.070745   0.608783  -0.286426   7.187782  -0.265694
     6  N    0.095100  -0.037765   0.106658   0.214277  -0.265694   7.081887
     7  B   -0.339784   0.039940  -0.510015  -0.010537   0.073729  -0.259192
     8  C   -0.012179  -0.008157  -0.136789   0.093615  -0.000297  -0.019843
     9  H   -0.001874  -0.003222  -0.006490  -0.016278  -0.025136   0.000906
    10  H   -0.002268  -0.001267   0.006474  -0.097210   0.058567   0.004204
    11  H    0.002300  -0.018046   0.020675  -0.022508  -0.030430   0.007024
    12  C   -0.772307  -0.015642   0.130218  -0.047968  -0.062622   0.059239
    13  C    0.189141   0.000022   0.209067   0.020083  -0.009625  -0.006968
    14  C    0.155893  -0.004251   0.196364   0.019984  -0.013635   0.002772
    15  H    0.015451  -0.000938   0.022833   0.002730  -0.006156   0.006364
    16  H   -0.004619  -0.001378  -0.008027   0.001406  -0.000432   0.001970
    17  H    0.000906   0.000015   0.012096   0.000162  -0.000623   0.000202
    18  H    0.015558  -0.001415   0.025021   0.002849  -0.005558   0.005616
    19  H    0.001041  -0.000033   0.012575   0.000222  -0.000897   0.000260
    20  H   -0.002948  -0.001030  -0.007265   0.001155  -0.000232   0.001438
    21  C    0.213226   0.037452  -0.480222   0.016566  -0.031239   0.058971
    22  C    0.118107  -0.024012   0.117615   0.018539  -0.009571  -0.010297
    23  C    0.093692  -0.015296   0.131023   0.020411  -0.019255  -0.002475
    24  H   -0.082037  -0.021757   0.028791   0.003343  -0.001730   0.003159
    25  H    0.000700  -0.000961   0.015164   0.003150  -0.001564   0.001177
    26  H    0.019384  -0.000715  -0.007457   0.000288  -0.000446   0.000418
    27  H    0.019774   0.000107  -0.008700   0.000082  -0.000506   0.000582
    28  H    0.010401  -0.001421   0.007419   0.003728  -0.001983   0.001028
    29  H   -0.122439  -0.027321   0.074410   0.003555  -0.004338   0.004933
    30  H   -0.041461  -0.012466  -0.011615   0.008570  -0.008731   0.009835
    31  H    0.017102  -0.005895  -0.050536   0.012152  -0.026263   0.084610
               7          8          9         10         11         12
     1  C   -0.339784  -0.012179  -0.001874  -0.002268   0.002300  -0.772307
     2  H    0.039940  -0.008157  -0.003222  -0.001267  -0.018046  -0.015642
     3  C   -0.510015  -0.136789  -0.006490   0.006474   0.020675   0.130218
     4  N   -0.010537   0.093615  -0.016278  -0.097210  -0.022508  -0.047968
     5  N    0.073729  -0.000297  -0.025136   0.058567  -0.030430  -0.062622
     6  N   -0.259192  -0.019843   0.000906   0.004204   0.007024   0.059239
     7  B    8.295981   0.000464  -0.002230   0.000752  -0.000862   1.405578
     8  C    0.000464   5.224370   0.405821   0.404751   0.394632  -0.008920
     9  H   -0.002230   0.405821   0.513635  -0.017932  -0.051023   0.000412
    10  H    0.000752   0.404751  -0.017932   0.449473  -0.022014  -0.000044
    11  H   -0.000862   0.394632  -0.051023  -0.022014   0.527844   0.000378
    12  C    1.405578  -0.008920   0.000412  -0.000044   0.000378   6.968852
    13  C   -1.171210   0.001465   0.000150   0.000204  -0.000058  -0.783761
    14  C   -1.098593   0.001005  -0.000230   0.000487   0.000322  -0.664875
    15  H   -0.111459   0.000046   0.000101   0.000040   0.000009  -0.140459
    16  H   -0.059447   0.000181   0.000005   0.000019  -0.000001   0.126041
    17  H    0.001598  -0.000009   0.000010   0.000004  -0.000001  -0.112806
    18  H   -0.128131   0.000140  -0.000028   0.000113   0.000061  -0.144875
    19  H   -0.006482   0.000003  -0.000003   0.000007   0.000009  -0.117053
    20  H   -0.064317   0.000150  -0.000006   0.000009   0.000014   0.120454
    21  C    0.559822   0.002629  -0.001249  -0.000205  -0.000898  -0.385232
    22  C   -0.738751   0.000714  -0.000646   0.000564   0.002149  -0.110406
    23  C   -0.739078   0.000335   0.002127  -0.000012  -0.000754  -0.096562
    24  H    0.050373   0.003038   0.000465   0.000166  -0.001156   0.046788
    25  H   -0.087875   0.000187   0.000005   0.000084   0.000147  -0.022943
    26  H    0.001254  -0.000054  -0.000050   0.000006   0.000149  -0.002740
    27  H    0.008060   0.000120   0.000117   0.000006  -0.000122  -0.001995
    28  H   -0.089259   0.000234   0.000185   0.000050   0.000105  -0.021134
    29  H    0.043454  -0.000026  -0.001457  -0.000121   0.001947   0.048746
    30  H   -0.189571   0.000664   0.000014   0.000076   0.000156   0.121511
    31  H   -0.184949   0.001105  -0.000007   0.000502   0.000051   0.554811
              13         14         15         16         17         18
     1  C    0.189141   0.155893   0.015451  -0.004619   0.000906   0.015558
     2  H    0.000022  -0.004251  -0.000938  -0.001378   0.000015  -0.001415
     3  C    0.209067   0.196364   0.022833  -0.008027   0.012096   0.025021
     4  N    0.020083   0.019984   0.002730   0.001406   0.000162   0.002849
     5  N   -0.009625  -0.013635  -0.006156  -0.000432  -0.000623  -0.005558
     6  N   -0.006968   0.002772   0.006364   0.001970   0.000202   0.005616
     7  B   -1.171210  -1.098593  -0.111459  -0.059447   0.001598  -0.128131
     8  C    0.001465   0.001005   0.000046   0.000181  -0.000009   0.000140
     9  H    0.000150  -0.000230   0.000101   0.000005   0.000010  -0.000028
    10  H    0.000204   0.000487   0.000040   0.000019   0.000004   0.000113
    11  H   -0.000058   0.000322   0.000009  -0.000001  -0.000001   0.000061
    12  C   -0.783761  -0.664875  -0.140459   0.126041  -0.112806  -0.144875
    13  C    6.369238   0.261231   0.512981   0.323691   0.445379   0.035788
    14  C    0.261231   6.221711   0.027903  -0.029468   0.002936   0.511847
    15  H    0.512981   0.027903   0.551030  -0.045707  -0.012824  -0.000483
    16  H    0.323691  -0.029468  -0.045707   0.561481  -0.044692  -0.002719
    17  H    0.445379   0.002936  -0.012824  -0.044692   0.540775  -0.000041
    18  H    0.035788   0.511847  -0.000483  -0.002719  -0.000041   0.554900
    19  H    0.008947   0.447373   0.000078   0.001944  -0.001131  -0.011870
    20  H   -0.034341   0.333079  -0.003395   0.011092   0.002002  -0.047172
    21  C    0.166400   0.134726   0.017646  -0.035008   0.009886   0.019074
    22  C    0.003317   0.175781  -0.000794   0.008868  -0.000930   0.002071
    23  C    0.163505  -0.001919   0.000111   0.004996   0.009635   0.001249
    24  H   -0.012339  -0.025170  -0.000882   0.001213  -0.000046   0.000552
    25  H    0.008746   0.031102  -0.000365   0.001087   0.000496  -0.002118
    26  H    0.003673  -0.002084   0.000067   0.000457   0.000105  -0.000706
    27  H   -0.003068   0.002438  -0.000840   0.000399  -0.000003  -0.000053
    28  H    0.029527   0.008734  -0.000901  -0.000977   0.000937   0.000153
    29  H   -0.027546  -0.009572   0.000289   0.001891  -0.000623  -0.000731
    30  H   -0.021149  -0.016434   0.003564   0.001938  -0.002109   0.004160
    31  H   -0.049641  -0.049964   0.003907   0.010023  -0.019200   0.004288
              19         20         21         22         23         24
     1  C    0.001041  -0.002948   0.213226   0.118107   0.093692  -0.082037
     2  H   -0.000033  -0.001030   0.037452  -0.024012  -0.015296  -0.021757
     3  C    0.012575  -0.007265  -0.480222   0.117615   0.131023   0.028791
     4  N    0.000222   0.001155   0.016566   0.018539   0.020411   0.003343
     5  N   -0.000897  -0.000232  -0.031239  -0.009571  -0.019255  -0.001730
     6  N    0.000260   0.001438   0.058971  -0.010297  -0.002475   0.003159
     7  B   -0.006482  -0.064317   0.559822  -0.738751  -0.739078   0.050373
     8  C    0.000003   0.000150   0.002629   0.000714   0.000335   0.003038
     9  H   -0.000003  -0.000006  -0.001249  -0.000646   0.002127   0.000465
    10  H    0.000007   0.000009  -0.000205   0.000564  -0.000012   0.000166
    11  H    0.000009   0.000014  -0.000898   0.002149  -0.000754  -0.001156
    12  C   -0.117053   0.120454  -0.385232  -0.110406  -0.096562   0.046788
    13  C    0.008947  -0.034341   0.166400   0.003317   0.163505  -0.012339
    14  C    0.447373   0.333079   0.134726   0.175781  -0.001919  -0.025170
    15  H    0.000078  -0.003395   0.017646  -0.000794   0.000111  -0.000882
    16  H    0.001944   0.011092  -0.035008   0.008868   0.004996   0.001213
    17  H   -0.001131   0.002002   0.009886  -0.000930   0.009635  -0.000046
    18  H   -0.011870  -0.047172   0.019074   0.002071   0.001249   0.000552
    19  H    0.540989  -0.044736   0.011576   0.009838  -0.000875  -0.000702
    20  H   -0.044736   0.567154  -0.036535   0.009859   0.006629   0.001508
    21  C    0.011576  -0.036535   6.175643  -0.411014  -0.409344   0.147175
    22  C    0.009838   0.009859  -0.411014   6.332522  -0.009686   0.206818
    23  C   -0.000875   0.006629  -0.409344  -0.009686   6.354977  -0.057014
    24  H   -0.000702   0.001508   0.147175   0.206818  -0.057014   0.641849
    25  H    0.001148  -0.000038  -0.095360   0.448946   0.051421  -0.054821
    26  H    0.000049   0.000573  -0.112989   0.479015   0.002550  -0.057310
    27  H    0.000103   0.000459  -0.104990  -0.000992   0.473844  -0.001118
    28  H    0.000571   0.000962  -0.093869   0.052458   0.450283  -0.006296
    29  H   -0.000074   0.001204   0.142953  -0.052077   0.203349   0.019096
    30  H   -0.001633   0.001453   0.504238  -0.094280  -0.091508   0.023235
    31  H   -0.018760   0.010731   0.005588  -0.002574  -0.003923   0.001422
              25         26         27         28         29         30
     1  C    0.000700   0.019384   0.019774   0.010401  -0.122439  -0.041461
     2  H   -0.000961  -0.000715   0.000107  -0.001421  -0.027321  -0.012466
     3  C    0.015164  -0.007457  -0.008700   0.007419   0.074410  -0.011615
     4  N    0.003150   0.000288   0.000082   0.003728   0.003555   0.008570
     5  N   -0.001564  -0.000446  -0.000506  -0.001983  -0.004338  -0.008731
     6  N    0.001177   0.000418   0.000582   0.001028   0.004933   0.009835
     7  B   -0.087875   0.001254   0.008060  -0.089259   0.043454  -0.189571
     8  C    0.000187  -0.000054   0.000120   0.000234  -0.000026   0.000664
     9  H    0.000005  -0.000050   0.000117   0.000185  -0.001457   0.000014
    10  H    0.000084   0.000006   0.000006   0.000050  -0.000121   0.000076
    11  H    0.000147   0.000149  -0.000122   0.000105   0.001947   0.000156
    12  C   -0.022943  -0.002740  -0.001995  -0.021134   0.048746   0.121511
    13  C    0.008746   0.003673  -0.003068   0.029527  -0.027546  -0.021149
    14  C    0.031102  -0.002084   0.002438   0.008734  -0.009572  -0.016434
    15  H   -0.000365   0.000067  -0.000840  -0.000901   0.000289   0.003564
    16  H    0.001087   0.000457   0.000399  -0.000977   0.001891   0.001938
    17  H    0.000496   0.000105  -0.000003   0.000937  -0.000623  -0.002109
    18  H   -0.002118  -0.000706  -0.000053   0.000153  -0.000731   0.004160
    19  H    0.001148   0.000049   0.000103   0.000571  -0.000074  -0.001633
    20  H   -0.000038   0.000573   0.000459   0.000962   0.001204   0.001453
    21  C   -0.095360  -0.112989  -0.104990  -0.093869   0.142953   0.504238
    22  C    0.448946   0.479015  -0.000992   0.052458  -0.052077  -0.094280
    23  C    0.051421   0.002550   0.473844   0.450283   0.203349  -0.091508
    24  H   -0.054821  -0.057310  -0.001118  -0.006296   0.019096   0.023235
    25  H    0.549178  -0.014220   0.002193  -0.002109  -0.006190  -0.007487
    26  H   -0.014220   0.552415   0.002582   0.002545  -0.000937  -0.026435
    27  H    0.002193   0.002582   0.552268  -0.014489  -0.058725  -0.027712
    28  H   -0.002109   0.002545  -0.014489   0.548714  -0.056911  -0.009733
    29  H   -0.006190  -0.000937  -0.058725  -0.056911   0.666351   0.026878
    30  H   -0.007487  -0.026435  -0.027712  -0.009733   0.026878   0.643350
    31  H   -0.000856   0.000498   0.000389  -0.000838   0.000797   0.008080
              31
     1  C    0.017102
     2  H   -0.005895
     3  C   -0.050536
     4  N    0.012152
     5  N   -0.026263
     6  N    0.084610
     7  B   -0.184949
     8  C    0.001105
     9  H   -0.000007
    10  H    0.000502
    11  H    0.000051
    12  C    0.554811
    13  C   -0.049641
    14  C   -0.049964
    15  H    0.003907
    16  H    0.010023
    17  H   -0.019200
    18  H    0.004288
    19  H   -0.018760
    20  H    0.010731
    21  C    0.005588
    22  C   -0.002574
    23  C   -0.003923
    24  H    0.001422
    25  H   -0.000856
    26  H    0.000498
    27  H    0.000389
    28  H   -0.000838
    29  H    0.000797
    30  H    0.008080
    31  H    0.535853
 Mulliken charges:
               1
     1  C   -0.284348
     2  H    0.292169
     3  C   -0.774229
     4  N    0.245038
     5  N    0.167864
     6  N   -0.150397
     7  B    0.310739
     8  C   -0.349398
     9  H    0.203910
    10  H    0.214513
    11  H    0.189900
    12  C   -0.070682
    13  C   -0.632851
    14  C   -0.619495
    15  H    0.160053
    16  H    0.173775
    17  H    0.167894
    18  H    0.162461
    19  H    0.167515
    20  H    0.172089
    21  C   -0.025417
    22  C   -0.521149
    23  C   -0.522438
    24  H    0.143387
    25  H    0.181976
    26  H    0.160114
    27  H    0.159789
    28  H    0.181885
    29  H    0.129234
    30  H    0.204601
    31  H    0.161499
 Sum of Mulliken charges =  -0.00000
 Mulliken charges with hydrogens summed into heavy atoms:
               1
     1  C    0.007821
     3  C   -0.774229
     4  N    0.245038
     5  N    0.167864
     6  N   -0.150397
     7  B    0.310739
     8  C    0.258925
    12  C    0.090816
    13  C   -0.131130
    14  C   -0.117430
    21  C    0.179184
    22  C   -0.035672
    23  C   -0.051529
 Electronic spatial extent (au):  <R**2>=           8431.3916
 Charge=             -0.0000 electrons
 Dipole moment (field-independent basis, Debye):
    X=             -5.3011    Y=              0.6467    Z=              0.1707  Tot=              5.3431
 Quadrupole moment (field-independent basis, Debye-Ang):
   XX=           -117.4048   YY=            -77.2835   ZZ=            -81.5632
   XY=            -11.2823   XZ=              1.9284   YZ=             -1.0120
 Traceless Quadrupole moment (field-independent basis, Debye-Ang):
   XX=            -25.3210   YY=             14.8004   ZZ=             10.5206
   XY=            -11.2823   XZ=              1.9284   YZ=             -1.0120
 Octapole moment (field-independent basis, Debye-Ang**2):
  XXX=          -1114.5996  YYY=            -30.4158  ZZZ=           -321.2210  XYY=           -331.8608
  XXY=            -97.4246  XXZ=            -96.4923  XZZ=           -308.5432  YZZ=            -17.7254
  YYZ=           -110.3755  XYZ=              3.8153
 Hexadecapole moment (field-independent basis, Debye-Ang**3):
 XXXX=          -9206.7392 YYYY=          -1711.3901 ZZZZ=          -1851.7402 XXXY=           -389.3373
 XXXZ=          -1276.6838 YYYX=             11.7160 YYYZ=            330.9555 ZZZX=          -1330.7714
 ZZZY=            350.4572 XXYY=          -1878.7236 XXZZ=          -1696.9732 YYZZ=           -592.9449
 XXYZ=            151.7516 YYXZ=           -441.0656 ZZXY=             18.2893
 N-N= 7.981855282664D+02 E-N=-2.856951713858D+03  KE= 5.404412997381D+02
 Breneman (CHELPG) radii used.
 Generate Potential Derived Charges using the Breneman model, NDens= 1.
 Grid spacing= 0.300 Box extension= 2.800
 NStep X,Y,Z=   41     44     39   Total possible points=       70356
 Number of Points to Fit=   17529

 **********************************************************************

            Electrostatic Properties Using The SCF Density.

 **********************************************************************

       Atomic Center    1 is at   2.491608  1.433407  0.604793
       Atomic Center    2 is at   1.491433  1.164997  0.901710
       Atomic Center    3 is at   3.727467  0.862811  0.862230
       Atomic Center    4 is at   2.734171  2.501440 -0.165705
       Atomic Center    5 is at   4.056981  2.621228 -0.395423
       Atomic Center    6 is at   4.649030  1.653061  0.209510
       Atomic Center    7 is at   4.138472 -0.395178  1.679319
       Atomic Center    8 is at   1.802902  3.471471 -0.709763
       Atomic Center    9 is at   1.390412  4.088658  0.089079
       Atomic Center   10 is at   2.354147  4.098485 -1.407291
       Atomic Center   11 is at   0.998397  2.957872 -1.235835
       Atomic Center   12 is at   5.668524 -0.784724  1.770606
       Atomic Center   13 is at   6.142906 -0.687751  3.232281
       Atomic Center   14 is at   5.910318 -2.200800  1.220712
       Atomic Center   15 is at   6.022472  0.323649  3.632728
       Atomic Center   16 is at   5.587503 -1.373440  3.881429
       Atomic Center   17 is at   7.203816 -0.948712  3.309606
       Atomic Center   18 is at   5.618627 -2.283391  0.169128
       Atomic Center   19 is at   6.971217 -2.464218  1.290006
       Atomic Center   20 is at   5.348015 -2.953624  1.783565
       Atomic Center   21 is at   3.050151 -1.286521  2.419847
       Atomic Center   22 is at   2.099679 -1.966485  1.418097
       Atomic Center   23 is at   2.264612 -0.501300  3.483938
       Atomic Center   24 is at   1.496425 -1.237214  0.869054
       Atomic Center   25 is at   2.648455 -2.558106  0.678905
       Atomic Center   26 is at   1.410557 -2.641457  1.937065
       Atomic Center   27 is at   1.587520 -1.165588  4.031814
       Atomic Center   28 is at   2.931886 -0.033363  4.214141
       Atomic Center   29 is at   1.657402  0.293722  3.041546
       Atomic Center   30 is at   3.574594 -2.091693  2.949282
       Atomic Center   31 is at   6.264062 -0.084663  1.177189
   17529 points will be used for fitting atomic charges
 Fitting point charges to electrostatic potential
 Charges from ESP fit, RMS=   0.00308 RRMS=   0.16344:
 ESP charges:
               1
     1  C   -0.404136
     2  H    0.202457
     3  C    0.186486
     4  N    0.602056
     5  N   -0.413761
     6  N   -0.234429
     7  B   -0.019724
     8  C   -0.341770
     9  H    0.130871
    10  H    0.127029
    11  H    0.127926
    12  C    0.466699
    13  C   -0.254304
    14  C   -0.260947
    15  H    0.039940
    16  H    0.023641
    17  H    0.051705
    18  H    0.042416
    19  H    0.052008
    20  H    0.022680
    21  C    0.460224
    22  C   -0.317736
    23  C   -0.354842
    24  H    0.043859
    25  H    0.050720
    26  H    0.061827
    27  H    0.071309
    28  H    0.058818
    29  H    0.053372
    30  H   -0.093015
    31  H   -0.181380
 Sum of ESP charges =   0.00000
 ESP charges with hydrogens summed into heavy atoms:
               1
     1  C   -0.201679
     3  C    0.186486
     4  N    0.602056
     5  N   -0.413761
     6  N   -0.234429
     7  B   -0.019724
     8  C    0.044057
    12  C    0.285319
    13  C   -0.139018
    14  C   -0.143843
    21  C    0.367210
    22  C   -0.161330
    23  C   -0.171343
 Charge=   0.00000 Dipole=    -5.2227     0.6389     0.1702 Tot=     5.2644
 -----------------------------------------------------------------

              Electrostatic Properties (Atomic Units)

 -----------------------------------------------------------------
    Center     Electric         -------- Electric Field --------
               Potential          X             Y             Z
 -----------------------------------------------------------------
    1 Atom    -14.720573
    2 Atom     -1.043274
    3 Atom    -14.775005
    4 Atom    -18.291695
    5 Atom    -18.358632
    6 Atom    -18.395956
    7 Atom    -11.478807
    8 Atom    -14.706157
    9 Atom     -1.069684
   10 Atom     -1.072388
   11 Atom     -1.065979
   12 Atom    -14.806863
   13 Atom    -14.793946
   14 Atom    -14.794538
   15 Atom     -1.136694
   16 Atom     -1.135053
   17 Atom     -1.137946
   18 Atom     -1.136862
   19 Atom     -1.138526
   20 Atom     -1.135429
   21 Atom    -14.790098
   22 Atom    -14.780991
   23 Atom    -14.781315
   24 Atom     -1.121499
   25 Atom     -1.124750
   26 Atom     -1.125099
   27 Atom     -1.125435
   28 Atom     -1.124953
   29 Atom     -1.121156
   30 Atom     -1.140263
   31 Atom     -1.163007
 -----------------------------------------------------------------
 Unable to Open any file for archive entry.
 1\1\GINC-IRENE4800\SP\RwB97XD\GenECP\C9H18B1N3\PENASFRA\09-Apr-2024\0\
 \# wb97xd/genecp scrf=(solvent=toluene,pcm) nosymm pop=(chelpg) scfcyc
 =300\\ipr_metriazole_chelpg\\0,1\C,0,2.491608,1.433407,0.604793\H,0,1.
 491433,1.164997,0.90171\C,0,3.727467,0.862811,0.86223\N,0,2.734171,2.5
 0144,-0.165705\N,0,4.056981,2.621228,-0.395423\N,0,4.64903,1.653061,0.
 20951\B,0,4.138472,-0.395178,1.679319\C,0,1.802902,3.471471,-0.709763\
 H,0,1.390412,4.088658,0.089079\H,0,2.354147,4.098485,-1.407291\H,0,0.9
 98397,2.957872,-1.235835\C,0,5.668524,-0.784724,1.770606\C,0,6.142906,
 -0.687751,3.232281\C,0,5.910318,-2.2008,1.220712\H,0,6.022472,0.323649
 ,3.632728\H,0,5.587503,-1.37344,3.881429\H,0,7.203816,-0.948712,3.3096
 06\H,0,5.618627,-2.283391,0.169128\H,0,6.971217,-2.464218,1.290006\H,0
 ,5.348015,-2.953624,1.783565\C,0,3.050151,-1.286521,2.419847\C,0,2.099
 679,-1.966485,1.418097\C,0,2.264612,-0.5013,3.483938\H,0,1.496425,-1.2
 37214,0.869054\H,0,2.648455,-2.558106,0.678905\H,0,1.410557,-2.641457,
 1.937065\H,0,1.58752,-1.165588,4.031814\H,0,2.931886,-0.033363,4.21414
 1\H,0,1.657402,0.293722,3.041546\H,0,3.574594,-2.091693,2.949282\H,0,6
 .264062,-0.084663,1.177189\\Version=AS64L-G16RevC.02\HF=-542.8633652\R
 MSD=7.098e-09\Dipole=-2.0856052,0.2544431,0.0671547\Quadrupole=-18.825
 5331,11.0037049,7.8218282,-8.388138,1.4337024,-0.7524089\PG=C01 [X(C9H
 18B1N3)]\\@
 The archive entry for this job was punched.


 YOU CAN WIPE THE SLATE CLEAN, BUT YOU'LL STILL
 HAVE TO EAT A LITTLE CHALK DUST.
 Job cpu time:       0 days  0 hours 56 minutes  0.2 seconds.
 Elapsed time:       0 days  0 hours  0 minutes 34.3 seconds.
 File lengths (MBytes):  RWF=    172 Int=      0 D2E=      0 Chk=     12 Scr=      1
 Normal termination of Gaussian 16 at Tue Apr  9 17:33:04 2024.
