 Entering Gaussian System, Link 0=/ccc/products/gaussian-16-C.02/system/default/g16/g16
 Input=ipr_dimethylaniline_chelpg.gjf
 Output=ipr_dimethylaniline_chelpg.log
 Initial command:
 /ccc/products/gaussian-16-C.02/system/default/g16/l1.exe "/ccc/scratch/cont003/gen7343/penasfra/flp/b-n_flp/ipr_dimethylaniline/Reactant/Gau-523087.inp" -scrdir="/ccc/scratch/cont003/gen7343/penasfra/flp/b-n_flp/ipr_dimethylaniline/Reactant/"
 Entering Link 1 = /ccc/products/gaussian-16-C.02/system/default/g16/l1.exe PID=    523136.
  
 Copyright (c) 1988-2021, Gaussian, Inc.  All Rights Reserved.
  
 This is part of the Gaussian(R) 16 program.  It is based on
 the Gaussian(R) 09 system (copyright 2009, Gaussian, Inc.),
 the Gaussian(R) 03 system (copyright 2003, Gaussian, Inc.),
 the Gaussian(R) 98 system (copyright 1998, Gaussian, Inc.),
 the Gaussian(R) 94 system (copyright 1995, Gaussian, Inc.),
 the Gaussian 92(TM) system (copyright 1992, Gaussian, Inc.),
 the Gaussian 90(TM) system (copyright 1990, Gaussian, Inc.),
 the Gaussian 88(TM) system (copyright 1988, Gaussian, Inc.),
 the Gaussian 86(TM) system (copyright 1986, Carnegie Mellon
 University), and the Gaussian 82(TM) system (copyright 1983,
 Carnegie Mellon University). Gaussian is a federally registered
 trademark of Gaussian, Inc.
  
 This software contains proprietary and confidential information,
 including trade secrets, belonging to Gaussian, Inc.
  
 This software is provided under written license and may be
 used, copied, transmitted, or stored only in accord with that
 written license.
  
 The following legend is applicable only to US Government
 contracts under FAR:
  
                    RESTRICTED RIGHTS LEGEND
  
 Use, reproduction and disclosure by the US Government is
 subject to restrictions as set forth in subparagraphs (a)
 and (c) of the Commercial Computer Software - Restricted
 Rights clause in FAR 52.227-19.
  
 Gaussian, Inc.
 340 Quinnipiac St., Bldg. 40, Wallingford CT 06492
  
  
 ---------------------------------------------------------------
 Warning -- This program may not be used in any manner that
 competes with the business of Gaussian, Inc. or will provide
 assistance to any competitor of Gaussian, Inc.  The licensee
 of this program is prohibited from giving any competitor of
 Gaussian, Inc. access to this program.  By using this program,
 the user acknowledges that Gaussian, Inc. is engaged in the
 business of creating and licensing software in the field of
 computational chemistry and represents and warrants to the
 licensee that it is not a competitor of Gaussian, Inc. and that
 it will not use this program in any manner prohibited above.
 ---------------------------------------------------------------
  

 Cite this work as:
 Gaussian 16, Revision C.02,
 M. J. Frisch, G. W. Trucks, H. B. Schlegel, G. E. Scuseria, 
 M. A. Robb, J. R. Cheeseman, G. Scalmani, V. Barone, 
 G. A. Petersson, H. Nakatsuji, X. Li, M. Caricato, A. V. Marenich, 
 J. Bloino, B. G. Janesko, R. Gomperts, B. Mennucci, H. P. Hratchian, 
 J. V. Ortiz, A. F. Izmaylov, J. L. Sonnenberg, D. Williams-Young, 
 F. Ding, F. Lipparini, F. Egidi, J. Goings, B. Peng, A. Petrone, 
 T. Henderson, D. Ranasinghe, V. G. Zakrzewski, J. Gao, N. Rega, 
 G. Zheng, W. Liang, M. Hada, M. Ehara, K. Toyota, R. Fukuda, 
 J. Hasegawa, M. Ishida, T. Nakajima, Y. Honda, O. Kitao, H. Nakai, 
 T. Vreven, K. Throssell, J. A. Montgomery, Jr., J. E. Peralta, 
 F. Ogliaro, M. J. Bearpark, J. J. Heyd, E. N. Brothers, K. N. Kudin, 
 V. N. Staroverov, T. A. Keith, R. Kobayashi, J. Normand, 
 K. Raghavachari, A. P. Rendell, J. C. Burant, S. S. Iyengar, 
 J. Tomasi, M. Cossi, J. M. Millam, M. Klene, C. Adamo, R. Cammi, 
 J. W. Ochterski, R. L. Martin, K. Morokuma, O. Farkas, 
 J. B. Foresman, and D. J. Fox, Gaussian, Inc., Wallingford CT, 2019.
 
 ******************************************
 Gaussian 16:  AS64L-G16RevC.02  7-Dec-2021
                 9-Apr-2024 
 ******************************************
 %nprocshared=128
 Will use up to  128 processors via shared memory.
 %mem=30GB
 %chk=ipr_dimethylaniline_chelpg.chk
 ----------------------------------------------------------------------
 # wb97xd/genecp scrf=(solvent=toluene,pcm) nosymm pop=(chelpg) scfcyc=
 300
 ----------------------------------------------------------------------
 1/38=1,172=1/1;
 2/12=2,15=1,17=6,18=5,40=1/2;
 3/5=7,11=2,16=1,17=8,25=1,30=1,70=2201,72=13,74=-58/1,2,3;
 4//1;
 5/5=2,7=300,38=5,53=13/2;
 6/7=2,8=2,9=2,10=2,15=8,20=3,28=1/1,2;
 99/5=1,9=1/99;
 --------------------------
 ipr_dimethylaniline_chelpg
 --------------------------
 Symbolic Z-matrix:
 Charge =  0 Multiplicity = 1
 C                    -0.89944   1.17678   0.58683 
 C                     0.48546   1.0572    0.65534 
 C                     1.31262   2.10055   0.23277 
 C                     0.71657   3.26497  -0.2503 
 C                    -0.66714   3.39198  -0.32828 
 C                    -1.47651   2.34113   0.09013 
 H                    -1.53043   0.358     0.91553 
 H                     0.92074   0.13873   1.03725 
 H                    -1.11444   4.3031   -0.71258 
 H                    -2.55556   2.43146   0.03013 
 N                     1.63313   4.3108   -0.64348 
 B                     2.89137   2.13669   0.24622 
 C                     1.64848   5.41694   0.30841 
 H                     1.84115   5.03902   1.31322 
 H                     2.44865   6.11234   0.04094 
 H                     0.69708   5.97318   0.32206 
 C                     1.42249   4.79377  -2.00279 
 H                     1.37426   3.9498   -2.69105 
 H                     0.49907   5.38557  -2.1096 
 H                     2.26466   5.42834  -2.29172 
 C                     3.70392   1.37933  -0.88923 
 C                     3.36759   1.86639  -2.30368 
 C                     3.42033  -0.13181  -0.77555 
 H                     2.30018   1.74039  -2.51399 
 H                     3.61107   2.92381  -2.43329 
 H                     3.92459   1.29452  -3.05418 
 H                     4.03566  -0.68984  -1.48921 
 H                     3.63808  -0.52293   0.2235 
 H                     2.37184  -0.35078  -1.00015 
 C                     3.64367   2.74432   1.50401 
 C                     4.19937   1.56714   2.33057 
 C                     4.76755   3.71691   1.12727 
 H                     4.94936   1.00601   1.76317 
 H                     4.68096   1.93209   3.24378 
 H                     3.41243   0.86713   2.63033 
 H                     5.24939   4.12372   2.0232 
 H                     5.54251   3.21997   0.53519 
 H                     4.38685   4.55532   0.53767 
 H                     4.7799    1.5232   -0.7304 
 H                     2.92859   3.27608   2.14269 
 
                          Input orientation:                          
 ---------------------------------------------------------------------
 Center     Atomic      Atomic             Coordinates (Angstroms)
 Number     Number       Type             X           Y           Z
 ---------------------------------------------------------------------
      1          6           0       -0.899441    1.176776    0.586833
      2          6           0        0.485457    1.057202    0.655342
      3          6           0        1.312620    2.100546    0.232773
      4          6           0        0.716565    3.264965   -0.250303
      5          6           0       -0.667142    3.391977   -0.328284
      6          6           0       -1.476510    2.341134    0.090133
      7          1           0       -1.530425    0.358000    0.915529
      8          1           0        0.920737    0.138731    1.037251
      9          1           0       -1.114441    4.303097   -0.712582
     10          1           0       -2.555558    2.431459    0.030126
     11          7           0        1.633134    4.310802   -0.643482
     12          5           0        2.891374    2.136690    0.246220
     13          6           0        1.648478    5.416937    0.308413
     14          1           0        1.841147    5.039023    1.313223
     15          1           0        2.448645    6.112337    0.040939
     16          1           0        0.697082    5.973180    0.322064
     17          6           0        1.422490    4.793774   -2.002792
     18          1           0        1.374263    3.949796   -2.691054
     19          1           0        0.499066    5.385571   -2.109596
     20          1           0        2.264657    5.428344   -2.291716
     21          6           0        3.703919    1.379326   -0.889230
     22          6           0        3.367589    1.866394   -2.303679
     23          6           0        3.420328   -0.131811   -0.775550
     24          1           0        2.300179    1.740391   -2.513989
     25          1           0        3.611068    2.923809   -2.433287
     26          1           0        3.924587    1.294524   -3.054181
     27          1           0        4.035661   -0.689844   -1.489207
     28          1           0        3.638077   -0.522930    0.223496
     29          1           0        2.371840   -0.350775   -1.000145
     30          6           0        3.643674    2.744316    1.504012
     31          6           0        4.199373    1.567144    2.330568
     32          6           0        4.767547    3.716910    1.127268
     33          1           0        4.949359    1.006007    1.763165
     34          1           0        4.680961    1.932089    3.243784
     35          1           0        3.412427    0.867128    2.630330
     36          1           0        5.249393    4.123724    2.023205
     37          1           0        5.542506    3.219965    0.535186
     38          1           0        4.386852    4.555323    0.537668
     39          1           0        4.779895    1.523195   -0.730404
     40          1           0        2.928590    3.276079    2.142692
 ---------------------------------------------------------------------
                    Distance matrix (angstroms):
                    1          2          3          4          5
     1  C    0.000000
     2  C    1.391738   0.000000
     3  C    2.423205   1.396900   0.000000
     4  C    2.769983   2.397461   1.394459   0.000000
     5  C    2.408011   2.783375   2.429411   1.391711   0.000000
     6  C    1.391204   2.411899   2.803119   2.403942   1.390834
     7  H    1.084701   2.149502   3.403752   3.854682   3.390773
     8  H    2.143236   1.085777   2.156264   3.387155   3.869064
     9  H    3.392431   3.868685   3.411093   2.154995   1.085311
    10  H    2.151017   3.395180   3.887592   3.388239   2.148760
    11  N    4.213043   3.686464   2.399121   1.445152   2.496970
    12  B    3.925268   2.668541   1.579225   2.499867   3.816915
    13  C    4.954632   4.525513   3.334212   2.410728   3.141328
    14  H    4.791181   4.257417   3.175116   2.618507   3.420354
    15  H    5.988943   5.457654   4.173945   3.345512   4.152687
    16  H    5.062063   4.931805   3.922264   2.768106   2.991098
    17  C    5.017987   4.680350   3.501899   2.430392   3.022511
    18  H    4.858386   4.511701   3.460100   2.618936   3.171936
    19  H    5.190425   5.136131   4.115817   2.828647   2.916767
    20  H    6.031036   5.563954   4.284117   3.353232   4.073979
    21  C    4.838462   3.584406   2.738131   3.590006   4.844750
    22  C    5.199825   4.209190   3.272814   3.633219   4.744327
    23  C    4.714753   3.474863   3.231496   4.373135   5.415214
    24  H    4.491139   3.715457   2.941035   3.155382   4.038569
    25  H    5.702450   4.774232   3.615038   3.641422   4.790960
    26  H    6.045006   5.064040   4.275057   4.694228   5.737055
    27  H    5.670048   4.500579   4.262211   5.309595   6.334458
    28  H    4.859021   3.552791   3.505776   4.807064   5.845158
    29  H    3.943753   2.877756   2.941260   4.046699   4.867751
    30  C    4.892677   3.679800   2.732087   3.452052   4.728626
    31  C    5.402861   4.106044   3.608130   4.655475   5.838020
    32  C    6.233707   5.062910   3.917815   4.302605   5.635606
    33  H    5.968365   4.599599   4.094629   5.203219   6.450744
    34  H    6.226618   5.006767   4.521093   5.449921   6.594934
    35  H    4.781628   3.536080   3.417424   4.616854   5.636590
    36  H    6.968201   5.828352   4.774629   5.143232   6.408615
    37  H    6.758400   5.501429   4.385942   4.889655   6.271754
    38  H    6.273906   5.241334   3.945858   3.969500   5.257956
    39  H    5.840375   4.536479   3.644591   4.446899   5.772717
    40  H    4.634824   3.620017   2.764241   3.258773   4.364452
                    6          7          8          9         10
     6  C    0.000000
     7  H    2.148722   0.000000
     8  H    3.390340   2.463958   0.000000
     9  H    2.150522   4.288074   4.954373   0.000000
    10  H    1.084483   2.476705   4.284335   2.476179   0.000000
    11  N    3.753354   5.297477   4.553960   2.748455   4.640131
    12  B    4.375451   4.812901   2.915644   4.653942   5.459181
    13  C    4.390189   6.005569   5.377757   3.149094   5.163762
    14  H    4.447629   5.782528   4.993614   3.658001   5.270365
    15  H    5.443458   7.050553   6.245887   4.066537   6.212168
    16  H    4.239110   6.069945   5.882373   2.672318   4.817539
    17  C    4.335894   6.075557   5.582387   2.888152   5.053529
    18  H    4.295312   5.860516   5.350716   3.198878   5.015343
    19  H    4.243855   6.208598   6.132682   2.393074   4.757722
    20  H    5.403740   7.099117   6.392820   3.895914   6.132434
    21  C    5.359204   5.630153   3.605067   5.638815   6.413521
    22  C    5.424114   6.052197   4.487061   5.343941   6.391370
    23  C    5.553727   5.254486   3.099580   6.343225   6.552151
    24  H    4.626632   5.324108   4.132733   4.633806   5.525240
    25  H    5.708818   6.650782   5.199921   5.214758   6.658685
    26  H    6.336715   6.811228   5.205650   6.318734   7.266213
    27  H    6.485767   6.153214   4.095397   7.214995   7.449502
    28  H    5.863416   5.288512   2.912719   6.837632   6.864905
    29  H    4.821294   4.404525   2.548784   5.821973   5.751655
    30  C    5.327091   5.728186   3.797542   5.475650   6.379710
    31  C    6.150956   6.024529   3.802958   6.706923   7.188057
    32  C    6.477396   7.140838   5.254466   6.190836   7.515582
    33  H    6.772990   6.567039   4.184365   7.332789   7.833206
    34  H    6.930172   6.817613   4.714256   7.406834   7.933737
    35  H    5.703245   5.256571   3.045814   6.593442   6.695150
    36  H    7.221646   7.834128   5.965697   6.929292   8.231244
    37  H    7.087807   7.639493   5.577349   6.858939   8.152022
    38  H    6.283465   7.264604   5.636472   5.647209   7.277737
    39  H    6.362775   6.624720   4.464801   6.517006   7.430493
    40  H    4.948942   5.468448   3.885412   5.055043   5.937356
                   11         12         13         14         15
    11  N    0.000000
    12  B    2.664864   0.000000
    13  C    1.459409   3.508373   0.000000
    14  H    2.098159   3.265733   1.090680   0.000000
    15  H    2.092610   4.005486   1.093339   1.771938   0.000000
    16  H    2.138217   4.420331   1.102156   1.778744   1.779429
    17  C    1.457860   3.778329   2.404386   3.351325   2.639780
    18  H    2.095207   3.770485   3.350298   4.175959   3.646185
    19  H    2.142599   4.672070   2.677480   3.692826   2.992298
    20  H    2.089114   4.203437   2.672167   3.650550   2.437822
    21  C    3.597512   1.588419   4.686309   4.659839   4.984207
    22  C    3.426327   2.608031   4.731250   5.047532   4.936570
    23  C    4.790440   2.543600   5.924781   5.796060   6.371829
    24  H    3.248193   2.850494   4.680562   5.073385   5.065926
    25  H    3.006555   2.883968   4.193372   4.652213   4.199968
    26  H    4.490007   3.559413   5.786363   6.118514   5.913501
    27  H    5.611938   3.508617   6.798739   6.744585   7.150499
    28  H    5.304377   2.762546   6.264801   5.945737   6.743504
    29  H    4.733201   2.830340   5.958362   5.889247   6.546875
    30  C    3.332849   1.586570   3.543045   2.924241   3.861637
    31  C    4.791473   2.525817   5.041536   4.318584   5.382028
    32  C    3.648672   2.606409   3.645436   3.216579   3.506492
    33  H    5.264121   2.795509   5.698107   5.111619   5.940895
    34  H    5.482551   3.497124   5.473255   4.630837   5.719784
    35  H    5.073718   2.750866   5.404033   4.648484   5.928409
    36  H    4.497060   3.558965   4.192791   3.599720   3.965873
    37  H    4.226390   2.878452   4.476781   4.196948   4.264044
    38  H    3.006305   2.858528   2.879866   2.704823   2.535287
    39  H    4.204808   2.212845   5.103542   5.017340   5.204798
    40  H    3.242163   2.212735   3.096214   2.231260   3.562593
                   16         17         18         19         20
    16  H    0.000000
    17  C    2.705951   0.000000
    18  H    3.692091   1.090105   0.000000
    19  H    2.509475   1.101972   1.779189   0.000000
    20  H    3.096124   1.093344   1.771546   1.775474   0.000000
    21  C    5.622437   4.254808   3.909115   5.273554   4.520286
    22  C    5.558041   3.527534   2.909291   4.544304   3.728819
    23  C    6.774344   5.455169   4.951268   6.383961   5.877896
    24  H    5.341313   3.217889   2.402112   4.085937   3.694816
    25  H    5.038049   2.910665   2.474346   3.981156   2.847027
    26  H    6.611024   4.428392   3.699525   5.418773   4.519423
    27  H    7.669596   6.096105   5.482129   7.057128   6.419712
    28  H    7.131522   6.175154   5.798684   7.085696   6.605319
    29  H    6.674238   5.326627   4.727499   6.135457   5.922657
    30  C    4.528241   4.629429   4.919552   5.470187   4.849046
    31  C    5.976059   6.074556   6.234979   6.927316   6.325939
    32  C    4.723113   4.705987   5.113531   5.610851   4.569783
    33  H    6.695628   6.400657   6.425517   7.347378   6.573184
    34  H    6.382645   6.806867   7.087150   7.620595   6.978831
    35  H    6.226794   6.390948   6.478741   7.167349   6.807981
    36  H    5.199798   5.594891   6.105008   6.421675   5.406406
    37  H    5.577073   5.088491   5.321234   6.092701   4.859280
    38  H    3.958687   3.911296   4.457241   4.776212   3.642978
    39  H    6.130205   4.856730   4.618535   5.928374   4.900439
    40  H    3.945715   4.664416   5.122004   5.332401   4.973633
                   21         22         23         24         25
    21  C    0.000000
    22  C    1.533303   0.000000
    23  C    1.541714   2.516105   0.000000
    24  H    2.177314   1.095204   2.789632   0.000000
    25  H    2.185901   1.092798   3.481564   1.767886   0.000000
    26  H    2.177820   1.095689   2.735118   1.768984   1.771545
    27  H    2.179791   2.764785   1.095145   3.157233   3.758996
    28  H    2.204784   3.488359   1.094752   3.795579   4.351923
    29  H    2.186318   2.757998   1.094402   2.582602   3.783184
    30  C    2.755800   3.917331   3.676737   4.353984   3.941523
    31  C    3.263104   4.717803   3.625097   5.206408   4.988082
    32  C    3.265252   4.141943   4.499819   4.822166   3.826749
    33  H    2.953927   4.447638   3.174530   5.084439   4.804081
    34  H    4.282752   5.701194   4.690834   6.233524   5.861511
    35  H    3.568560   5.034381   3.549361   5.335138   5.468968
    36  H    4.289812   5.230550   5.411847   5.913059   4.897369
    37  H    2.966027   3.823817   4.178046   4.690340   3.553870
    38  H    3.548153   4.042584   4.962654   4.646575   3.477104
    39  H    1.097109   2.141866   2.142313   3.062244   2.495533
    40  H    3.659420   4.685098   4.513497   4.943472   4.639984
                   26         27         28         29         30
    26  H    0.000000
    27  H    2.529663   0.000000
    28  H    3.758776   1.766150   0.000000
    29  H    3.055666   1.767045   1.769263   0.000000
    30  C    4.791444   4.572359   3.509223   4.179468   0.000000
    31  C    5.398643   4.439761   3.020466   4.255812   1.541989
    32  C    4.905410   5.176976   4.479816   5.177969   1.533286
    33  H    4.933581   3.780037   2.535289   4.015015   2.189450
    34  H    6.375183   5.449050   4.029499   5.343636   2.182312
    35  H    5.723516   4.447827   2.788553   3.968181   2.201341
    36  H    5.961487   6.081169   5.237049   6.118995   2.179601
    37  H    4.382755   4.653531   4.211088   5.016029   2.184131
    38  H    4.873179   5.634122   5.142764   5.522222   2.183090
    39  H    2.486721   2.455037   2.529882   3.063210   2.788324
    40  H    5.650315   5.490432   4.314992   4.831301   1.096371
                   31         32         33         34         35
    31  C    0.000000
    32  C    2.528289   0.000000
    33  H    1.095126   2.790415   0.000000
    34  H    1.095023   2.769968   1.766889   0.000000
    35  H    1.095063   3.495254   1.770148   1.766252   0.000000
    36  H    2.780848   1.095617   3.142897   2.572196   3.787936
    37  H    2.785538   1.094567   2.600263   3.120479   3.802987
    38  H    3.489821   1.093386   3.796828   3.780333   4.351037
    39  H    3.115844   2.874627   2.552271   3.996392   3.687130
    40  H    2.137907   2.146434   3.062805   2.467695   2.504982
                   36         37         38         39         40
    36  H    0.000000
    37  H    1.765473   0.000000
    38  H    1.771179   1.765991   0.000000
    39  H    3.816483   2.249960   3.310029   0.000000
    40  H    2.473642   3.069166   2.517756   3.841173   0.000000
 Symmetry turned off by external request.
 Stoichiometry    C14H24BN
 Framework group  C1[X(C14H24BN)]
 Deg. of freedom   114
 Full point group                 C1      NOp   1
 Rotational constants (GHZ):           0.6179030           0.4482453           0.3841942
 General basis read from cards:  (5D, 7F)
 ======================================================================================================
                                       Pseudopotential Parameters
 ======================================================================================================
  Center     Atomic      Valence      Angular      Power
  Number     Number     Electrons     Momentum     of R      Exponent        Coefficient   SO-Coeffient
 ======================================================================================================
    1          6
                                   No pseudopotential on this center.
    2          6
                                   No pseudopotential on this center.
    3          6
                                   No pseudopotential on this center.
    4          6
                                   No pseudopotential on this center.
    5          6
                                   No pseudopotential on this center.
    6          6
                                   No pseudopotential on this center.
    7          1
                                   No pseudopotential on this center.
    8          1
                                   No pseudopotential on this center.
    9          1
                                   No pseudopotential on this center.
   10          1
                                   No pseudopotential on this center.
   11          7
                                   No pseudopotential on this center.
   12          5
                                   No pseudopotential on this center.
   13          6
                                   No pseudopotential on this center.
   14          1
                                   No pseudopotential on this center.
   15          1
                                   No pseudopotential on this center.
   16          1
                                   No pseudopotential on this center.
   17          6
                                   No pseudopotential on this center.
   18          1
                                   No pseudopotential on this center.
   19          1
                                   No pseudopotential on this center.
   20          1
                                   No pseudopotential on this center.
   21          6
                                   No pseudopotential on this center.
   22          6
                                   No pseudopotential on this center.
   23          6
                                   No pseudopotential on this center.
   24          1
                                   No pseudopotential on this center.
   25          1
                                   No pseudopotential on this center.
   26          1
                                   No pseudopotential on this center.
   27          1
                                   No pseudopotential on this center.
   28          1
                                   No pseudopotential on this center.
   29          1
                                   No pseudopotential on this center.
   30          6
                                   No pseudopotential on this center.
   31          6
                                   No pseudopotential on this center.
   32          6
                                   No pseudopotential on this center.
   33          1
                                   No pseudopotential on this center.
   34          1
                                   No pseudopotential on this center.
   35          1
                                   No pseudopotential on this center.
   36          1
                                   No pseudopotential on this center.
   37          1
                                   No pseudopotential on this center.
   38          1
                                   No pseudopotential on this center.
   39          1
                                   No pseudopotential on this center.
   40          1
                                   No pseudopotential on this center.
 ======================================================================================================
   520 basis functions,   792 primitive gaussians,   536 cartesian basis functions
    60 alpha electrons       60 beta electrons
       nuclear repulsion energy      1149.1102703682 Hartrees.
 NAtoms=   40 NActive=   40 NUniq=   40 SFac= 1.00D+00 NAtFMM=   60 NAOKFM=F Big=F
 Integral buffers will be    131072 words long.
 Raffenetti 2 integral format.
 Two-electron integral symmetry is turned off.
 Nuclear repulsion after empirical dispersion term =     1149.0714061304 Hartrees.
 ------------------------------------------------------------------------------
 Polarizable Continuum Model (PCM)
 =================================
 Model                : PCM.
 Atomic radii         : UFF (Universal Force Field).
 Polarization charges : Total charges.
 Charge compensation  : None.
 Solution method      : On-the-fly selection.
 Cavity type          : Scaled VdW (van der Waals Surface) (Alpha=1.100).
 Cavity algorithm     : GePol (No added spheres)
                        Default sphere list used, NSphG=   40.
                        Lebedev-Laikov grids with approx.  5.0 points / Ang**2.
                        Smoothing algorithm: York/Karplus (Gamma=1.0000).
                        Polarization charges: spherical gaussians, with
                                              point-specific exponents (IZeta= 3).
                        Self-potential: point-specific (ISelfS= 7).
                        Self-field    : sphere-specific E.n sum rule (ISelfD= 2).
 Solvent              : Toluene, Eps=   2.374100 Eps(inf)=   2.238315
 ------------------------------------------------------------------------------
 One-electron integrals computed using PRISM.
   1 Symmetry operations used in ECPInt.
 ECPInt:  NShTT=   23436 NPrTT=   71236 LenC2=   22484 LenP2D=   50343.
 LDataN:  DoStor=T MaxTD1= 4 Len=   56
 Number of processors reduced to  82 by ecpmxn.
 NBasis=   520 RedAO= T EigKep=  1.15D-06  NBF=   520
 NBsUse=   518 1.00D-06 EigRej=  3.22D-07 NBFU=   518
 ExpMin= 3.15D-02 ExpMax= 6.29D+03 ExpMxC= 9.49D+02 IAcc=3 IRadAn=         5 AccDes= 0.00D+00
 Harris functional with IExCor= 4639 and IRadAn=       5 diagonalized for initial guess.
 HarFok:  IExCor= 4639 AccDes= 0.00D+00 IRadAn=         5 IDoV= 1 UseB2=F ITyADJ=14
 ICtDFT=  3500011 ScaDFX=  1.000000  1.000000  1.000000  1.000000
 FoFCou: FMM=F IPFlag=           0 FMFlag=      100000 FMFlg1=           0
         NFxFlg=           0 DoJE=T BraDBF=F KetDBF=T FulRan=T
         wScrn=  0.000000 ICntrl=       500 IOpCl=  0 I1Cent=   200000004 NGrid=           0
         NMat0=    1 NMatS0=      1 NMatT0=    0 NMatD0=    1 NMtDS0=    0 NMtDT0=    0
 Symmetry not used in FoFCou.
 Requested convergence on RMS density matrix=1.00D-08 within 300 cycles.
 Requested convergence on MAX density matrix=1.00D-06.
 Requested convergence on             energy=1.00D-06.
 No special actions if energy rises.
 Inv3:  Mode=1 IEnd=    18780012.
 Iteration    1 A*A^-1 deviation from unit magnitude is 6.11D-15 for   2500.
 Iteration    1 A*A^-1 deviation from orthogonality  is 2.22D-15 for   1114    449.
 Iteration    1 A^-1*A deviation from unit magnitude is 6.11D-15 for   2500.
 Iteration    1 A^-1*A deviation from orthogonality  is 1.72D-15 for   2502   1551.
 Error on total polarization charges =  0.01052
 SCF Done:  E(RwB97XD) =  -627.520464231     A.U. after   16 cycles
            NFock= 16  Conv=0.25D-08     -V/T= 2.0048

 **********************************************************************

            Population analysis using the SCF Density.

 **********************************************************************

 Alpha  occ. eigenvalues --  -14.43749 -10.31361 -10.30229 -10.30163 -10.28692
 Alpha  occ. eigenvalues --  -10.28633 -10.28591 -10.28514 -10.27065 -10.26782
 Alpha  occ. eigenvalues --  -10.26652 -10.26395 -10.26349 -10.25819 -10.25806
 Alpha  occ. eigenvalues --   -6.83846  -1.03969  -0.94941  -0.88662  -0.86788
 Alpha  occ. eigenvalues --   -0.84500  -0.84268  -0.80766  -0.77726  -0.77087
 Alpha  occ. eigenvalues --   -0.74271  -0.70861  -0.67897  -0.66671  -0.66325
 Alpha  occ. eigenvalues --   -0.61132  -0.56928  -0.56423  -0.55309  -0.54788
 Alpha  occ. eigenvalues --   -0.54088  -0.52861  -0.52462  -0.51307  -0.50575
 Alpha  occ. eigenvalues --   -0.49085  -0.48516  -0.48234  -0.47553  -0.47199
 Alpha  occ. eigenvalues --   -0.46134  -0.45939  -0.45253  -0.44894  -0.43578
 Alpha  occ. eigenvalues --   -0.42652  -0.41676  -0.41496  -0.41064  -0.40793
 Alpha  occ. eigenvalues --   -0.36416  -0.35849  -0.32853  -0.31829  -0.30510
 Alpha virt. eigenvalues --    0.03785   0.04571   0.04649   0.05071   0.05357
 Alpha virt. eigenvalues --    0.05471   0.06134   0.06409   0.06703   0.06949
 Alpha virt. eigenvalues --    0.07562   0.07727   0.08304   0.08497   0.09058
 Alpha virt. eigenvalues --    0.09170   0.09663   0.09929   0.10755   0.10880
 Alpha virt. eigenvalues --    0.11523   0.11896   0.12155   0.12763   0.12936
 Alpha virt. eigenvalues --    0.13447   0.13486   0.14188   0.14501   0.14802
 Alpha virt. eigenvalues --    0.15101   0.15536   0.16515   0.16763   0.17108
 Alpha virt. eigenvalues --    0.17698   0.17744   0.17861   0.18063   0.18210
 Alpha virt. eigenvalues --    0.18597   0.18714   0.18932   0.19427   0.19500
 Alpha virt. eigenvalues --    0.19879   0.20116   0.20460   0.20506   0.20550
 Alpha virt. eigenvalues --    0.21032   0.21371   0.21508   0.21727   0.22072
 Alpha virt. eigenvalues --    0.22386   0.22620   0.23058   0.23528   0.23817
 Alpha virt. eigenvalues --    0.23951   0.24405   0.24531   0.24984   0.25107
 Alpha virt. eigenvalues --    0.25401   0.25530   0.26048   0.26317   0.26524
 Alpha virt. eigenvalues --    0.26979   0.27101   0.27512   0.27611   0.27928
 Alpha virt. eigenvalues --    0.28250   0.28450   0.29027   0.29336   0.29635
 Alpha virt. eigenvalues --    0.29984   0.30730   0.30776   0.30976   0.31663
 Alpha virt. eigenvalues --    0.31870   0.32399   0.32988   0.33182   0.33359
 Alpha virt. eigenvalues --    0.33808   0.34275   0.34423   0.34792   0.35364
 Alpha virt. eigenvalues --    0.35628   0.36118   0.36271   0.36550   0.37143
 Alpha virt. eigenvalues --    0.37467   0.38016   0.38246   0.38546   0.39098
 Alpha virt. eigenvalues --    0.39390   0.40023   0.40471   0.40678   0.41216
 Alpha virt. eigenvalues --    0.41769   0.41984   0.42437   0.42882   0.43217
 Alpha virt. eigenvalues --    0.43887   0.44575   0.44928   0.46293   0.46489
 Alpha virt. eigenvalues --    0.47211   0.47910   0.49360   0.50409   0.51760
 Alpha virt. eigenvalues --    0.52010   0.52785   0.53614   0.54781   0.56112
 Alpha virt. eigenvalues --    0.56746   0.57318   0.58645   0.58933   0.59684
 Alpha virt. eigenvalues --    0.60296   0.61010   0.62906   0.63681   0.64387
 Alpha virt. eigenvalues --    0.65037   0.66018   0.66233   0.66771   0.67625
 Alpha virt. eigenvalues --    0.68090   0.68380   0.69202   0.69494   0.70058
 Alpha virt. eigenvalues --    0.70432   0.71067   0.71587   0.72632   0.72893
 Alpha virt. eigenvalues --    0.73876   0.74132   0.74956   0.75348   0.76047
 Alpha virt. eigenvalues --    0.76694   0.77349   0.77681   0.78417   0.78612
 Alpha virt. eigenvalues --    0.79203   0.79448   0.79784   0.81012   0.81578
 Alpha virt. eigenvalues --    0.82335   0.82602   0.83209   0.83413   0.83750
 Alpha virt. eigenvalues --    0.84321   0.84708   0.85227   0.85901   0.86622
 Alpha virt. eigenvalues --    0.87208   0.87742   0.88353   0.88721   0.89150
 Alpha virt. eigenvalues --    0.89413   0.90284   0.90871   0.91717   0.91914
 Alpha virt. eigenvalues --    0.92317   0.93103   0.94700   0.95286   0.96505
 Alpha virt. eigenvalues --    0.96598   0.98306   0.99460   1.00099   1.00688
 Alpha virt. eigenvalues --    1.01869   1.03411   1.04608   1.05882   1.06423
 Alpha virt. eigenvalues --    1.07387   1.07825   1.09121   1.10663   1.11404
 Alpha virt. eigenvalues --    1.12609   1.13657   1.15327   1.16485   1.17531
 Alpha virt. eigenvalues --    1.18428   1.19009   1.20629   1.21318   1.21936
 Alpha virt. eigenvalues --    1.22943   1.26434   1.26669   1.29610   1.30883
 Alpha virt. eigenvalues --    1.32080   1.35027   1.37129   1.37969   1.39314
 Alpha virt. eigenvalues --    1.41687   1.41892   1.45892   1.46599   1.48188
 Alpha virt. eigenvalues --    1.49870   1.51329   1.53843   1.55328   1.55638
 Alpha virt. eigenvalues --    1.56869   1.57221   1.58348   1.59536   1.60534
 Alpha virt. eigenvalues --    1.60819   1.62495   1.62957   1.63817   1.64487
 Alpha virt. eigenvalues --    1.65145   1.66510   1.66662   1.66804   1.67929
 Alpha virt. eigenvalues --    1.68436   1.69153   1.69715   1.69895   1.71275
 Alpha virt. eigenvalues --    1.71953   1.72229   1.72918   1.73259   1.74410
 Alpha virt. eigenvalues --    1.74906   1.75334   1.76880   1.77460   1.78255
 Alpha virt. eigenvalues --    1.78707   1.79043   1.79939   1.80280   1.82061
 Alpha virt. eigenvalues --    1.82184   1.82858   1.83156   1.83554   1.84489
 Alpha virt. eigenvalues --    1.84770   1.85143   1.86648   1.88276   1.89088
 Alpha virt. eigenvalues --    1.89805   1.91077   1.91885   1.92255   1.94479
 Alpha virt. eigenvalues --    1.94991   1.97021   1.97816   1.98589   1.99201
 Alpha virt. eigenvalues --    2.00704   2.01429   2.03747   2.04182   2.05724
 Alpha virt. eigenvalues --    2.07049   2.08174   2.08673   2.09164   2.10398
 Alpha virt. eigenvalues --    2.12061   2.13312   2.14247   2.15577   2.15901
 Alpha virt. eigenvalues --    2.18163   2.19210   2.20332   2.21957   2.23403
 Alpha virt. eigenvalues --    2.23652   2.24438   2.25982   2.28071   2.28888
 Alpha virt. eigenvalues --    2.29483   2.30114   2.31444   2.33043   2.35889
 Alpha virt. eigenvalues --    2.36918   2.38901   2.39745   2.42674   2.44583
 Alpha virt. eigenvalues --    2.44597   2.46061   2.47897   2.49626   2.50532
 Alpha virt. eigenvalues --    2.51963   2.55218   2.55448   2.56992   2.58353
 Alpha virt. eigenvalues --    2.58749   2.59284   2.59944   2.61003   2.61254
 Alpha virt. eigenvalues --    2.61717   2.63335   2.64323   2.64625   2.65896
 Alpha virt. eigenvalues --    2.66315   2.66986   2.67225   2.68048   2.68556
 Alpha virt. eigenvalues --    2.70112   2.71557   2.73008   2.74391   2.75096
 Alpha virt. eigenvalues --    2.76568   2.77067   2.78850   2.79085   2.79463
 Alpha virt. eigenvalues --    2.80598   2.81458   2.81607   2.82589   2.82964
 Alpha virt. eigenvalues --    2.84241   2.84766   2.85577   2.86280   2.86690
 Alpha virt. eigenvalues --    2.88175   2.88495   2.89947   2.90984   2.91122
 Alpha virt. eigenvalues --    2.93044   2.95505   2.95794   2.97082   2.98737
 Alpha virt. eigenvalues --    3.00021   3.00426   3.01098   3.02623   3.06709
 Alpha virt. eigenvalues --    3.09811   3.10207   3.10697   3.11691   3.12644
 Alpha virt. eigenvalues --    3.16298   3.16698   3.17186   3.18026   3.21886
 Alpha virt. eigenvalues --    3.24115   3.29763   3.31293   3.34015   3.37158
 Alpha virt. eigenvalues --    3.46741   3.50020   3.53454   3.56389   3.58649
 Alpha virt. eigenvalues --    3.62511   3.68504   3.69262   3.73055   3.76824
 Alpha virt. eigenvalues --    3.84882   3.87064   3.88659   3.89726   3.90142
 Alpha virt. eigenvalues --    3.90799   3.91245   3.91439   3.91618   3.94780
 Alpha virt. eigenvalues --    3.94961   3.95926   3.97906   4.02443   4.05194
 Alpha virt. eigenvalues --    4.08365   4.16029   4.22851   4.23106   4.25332
 Alpha virt. eigenvalues --    4.31615   4.40447   4.41411   4.48795   4.96482
 Alpha virt. eigenvalues --    4.97374   5.06411  14.88729  23.76816  23.99836
 Alpha virt. eigenvalues --   24.05648  24.10364  24.10674  24.11588  24.12669
 Alpha virt. eigenvalues --   24.13134  24.13793  24.16102  24.17875  24.24011
 Alpha virt. eigenvalues --   24.25782  24.34092  35.73470
          Condensed to atoms (all electrons):
               1          2          3          4          5          6
     1  C    7.295897   0.456548  -1.630396   0.175996  -0.303463   0.072964
     2  C    0.456548  10.989700  -3.403419  -3.741311   3.363339  -1.446441
     3  C   -1.630396  -3.403419   9.767862   2.580052  -1.726891   0.841837
     4  C    0.175996  -3.741311   2.580052  16.052118  -5.610193   0.430686
     5  C   -0.303463   3.363339  -1.726891  -5.610193  10.767981  -1.029276
     6  C    0.072964  -1.446441   0.841837   0.430686  -1.029276   6.654330
     7  H    0.415464  -0.068665   0.018073   0.016022  -0.009701  -0.026886
     8  H   -0.055670   0.472505  -0.101624  -0.026491   0.067303  -0.007537
     9  H    0.002046   0.090963  -0.015175  -0.138698   0.554850  -0.110455
    10  H    0.014086  -0.048908   0.014385   0.093681  -0.118049   0.387483
    11  N    0.024705  -0.389959  -0.328964  -1.551551  -0.095148   0.336929
    12  B   -0.470711  -0.642289   0.776138  -0.367578  -0.069492   0.239875
    13  C   -0.013848   0.042167  -0.096801  -1.138649   0.278301   0.110189
    14  H    0.003368   0.059720   0.025556  -0.084212   0.062181  -0.022312
    15  H   -0.003170  -0.011610  -0.012991   0.090050  -0.021489   0.009166
    16  H   -0.005668  -0.018335  -0.018763   0.051948  -0.028767   0.013332
    17  C    0.080380   0.059195  -0.078436  -0.767398   0.184840  -0.002312
    18  H    0.012130  -0.007377   0.024075  -0.013420   0.001765  -0.003394
    19  H   -0.010508  -0.000902  -0.012109  -0.045940   0.020112   0.019043
    20  H    0.002691  -0.001693  -0.004940   0.104761  -0.019287  -0.003131
    21  C    0.083926   0.173854  -0.632933   0.127688  -0.135131   0.032440
    22  C    0.040726  -0.063277   0.067808  -0.112151   0.028861  -0.000625
    23  C    0.060944  -0.017454   0.136050   0.072224  -0.007823   0.004355
    24  H    0.019113   0.049742   0.003429   0.005242   0.017638  -0.017996
    25  H   -0.004762  -0.001586  -0.013118   0.043827  -0.009531  -0.000971
    26  H    0.001254  -0.004537  -0.000046  -0.004296  -0.000351   0.000881
    27  H   -0.007794  -0.010815   0.018372   0.000403   0.000536   0.000740
    28  H    0.019093  -0.001190  -0.044111   0.000512  -0.003226   0.001850
    29  H    0.045532   0.037113  -0.036335   0.024115  -0.013358   0.000676
    30  C    0.017511  -0.059150  -0.033563   0.034052  -0.099605   0.008768
    31  C    0.060115  -0.053383  -0.174744  -0.009795  -0.054871   0.041128
    32  C    0.035929   0.197947  -0.171508   0.016919   0.036938  -0.027116
    33  H   -0.001397   0.018051  -0.018556  -0.006052   0.003168   0.000914
    34  H    0.001032  -0.008004   0.005453   0.003022  -0.000951   0.000016
    35  H    0.009044  -0.009802  -0.006811  -0.001284  -0.007530   0.002864
    36  H   -0.000500   0.000221  -0.004699   0.001547  -0.001152   0.001179
    37  H   -0.002560  -0.000399   0.013360  -0.008303   0.005022   0.000068
    38  H    0.005169   0.008088  -0.022654   0.082477  -0.020654  -0.003993
    39  H    0.021880   0.037825  -0.042395  -0.006210  -0.007081   0.002826
    40  H   -0.023652   0.012715   0.027922  -0.048371   0.027534  -0.003237
               7          8          9         10         11         12
     1  C    0.415464  -0.055670   0.002046   0.014086   0.024705  -0.470711
     2  C   -0.068665   0.472505   0.090963  -0.048908  -0.389959  -0.642289
     3  C    0.018073  -0.101624  -0.015175   0.014385  -0.328964   0.776138
     4  C    0.016022  -0.026491  -0.138698   0.093681  -1.551551  -0.367578
     5  C   -0.009701   0.067303   0.554850  -0.118049  -0.095148  -0.069492
     6  C   -0.026886  -0.007537  -0.110455   0.387483   0.336929   0.239875
     7  H    0.458095  -0.006644   0.001296  -0.004655  -0.002064  -0.007143
     8  H   -0.006644   0.488443   0.001033   0.000240  -0.011143  -0.106635
     9  H    0.001296   0.001033   0.493651  -0.007704  -0.041763  -0.000206
    10  H   -0.004655   0.000240  -0.007704   0.447699  -0.005423  -0.003719
    11  N   -0.002064  -0.011143  -0.041763  -0.005423   8.205772   0.117105
    12  B   -0.007143  -0.106635  -0.000206  -0.003719   0.117105  10.064701
    13  C   -0.001463  -0.000123  -0.022803   0.000293   0.554740   0.061162
    14  H    0.000413   0.000033   0.004541  -0.000625  -0.055010  -0.001112
    15  H   -0.000076   0.000024  -0.002817   0.000117  -0.078811   0.024080
    16  H   -0.000153   0.000036   0.004075   0.000460  -0.066839   0.001176
    17  C    0.000596  -0.002718  -0.010830  -0.001448   0.383569  -0.167579
    18  H    0.000144  -0.000653  -0.003224   0.000068  -0.047079  -0.047612
    19  H   -0.000453   0.000224   0.008453   0.000912  -0.059891  -0.000914
    20  H    0.000138  -0.000165  -0.000907  -0.000199  -0.089245  -0.016104
    21  C   -0.000212  -0.013300  -0.003146   0.000835  -0.114767   0.061609
    22  C    0.000591  -0.000475  -0.000545  -0.000457   0.117842  -0.589831
    23  C   -0.001542   0.036746  -0.000558   0.000175   0.006473  -0.979296
    24  H    0.000249   0.003916  -0.000336   0.000025  -0.000596  -0.286942
    25  H   -0.000168   0.000319  -0.000126   0.000194  -0.008852   0.020545
    26  H    0.000085  -0.001008   0.000118  -0.000028   0.005563   0.075454
    27  H   -0.000083   0.001308   0.000021   0.000012   0.000604   0.064232
    28  H    0.000131  -0.001053  -0.000079  -0.000040   0.001433  -0.022074
    29  H   -0.000790   0.003231  -0.000812   0.000595   0.002065  -0.317571
    30  C    0.001010   0.005592  -0.005130   0.000425   0.065298   0.660763
    31  C   -0.002804   0.006323  -0.002210   0.000236   0.036616  -1.142055
    32  C    0.001039  -0.005126   0.003337  -0.000384  -0.074883  -0.847892
    33  H   -0.000312   0.005594  -0.000094   0.000015  -0.000847  -0.111256
    34  H    0.000070  -0.001775   0.000019  -0.000010  -0.000808   0.076440
    35  H    0.000070  -0.007556  -0.000171  -0.000037   0.005703  -0.115850
    36  H   -0.000041   0.000086  -0.000177   0.000026   0.000651   0.035098
    37  H   -0.000050   0.000263   0.000096  -0.000008   0.001906   0.035761
    38  H    0.000034  -0.000164   0.000309   0.000041  -0.017818  -0.153647
    39  H   -0.000273   0.000922  -0.000747   0.000092  -0.007006  -0.375651
    40  H   -0.000663   0.003110  -0.000369   0.000121   0.007306  -0.182635
              13         14         15         16         17         18
     1  C   -0.013848   0.003368  -0.003170  -0.005668   0.080380   0.012130
     2  C    0.042167   0.059720  -0.011610  -0.018335   0.059195  -0.007377
     3  C   -0.096801   0.025556  -0.012991  -0.018763  -0.078436   0.024075
     4  C   -1.138649  -0.084212   0.090050   0.051948  -0.767398  -0.013420
     5  C    0.278301   0.062181  -0.021489  -0.028767   0.184840   0.001765
     6  C    0.110189  -0.022312   0.009166   0.013332  -0.002312  -0.003394
     7  H   -0.001463   0.000413  -0.000076  -0.000153   0.000596   0.000144
     8  H   -0.000123   0.000033   0.000024   0.000036  -0.002718  -0.000653
     9  H   -0.022803   0.004541  -0.002817   0.004075  -0.010830  -0.003224
    10  H    0.000293  -0.000625   0.000117   0.000460  -0.001448   0.000068
    11  N    0.554740  -0.055010  -0.078811  -0.066839   0.383569  -0.047079
    12  B    0.061162  -0.001112   0.024080   0.001176  -0.167579  -0.047612
    13  C    5.707137   0.365893   0.391172   0.421726  -0.217693   0.008423
    14  H    0.365893   0.531140  -0.011563  -0.042602   0.007245  -0.008512
    15  H    0.391172  -0.011563   0.527178  -0.044177  -0.014303  -0.000639
    16  H    0.421726  -0.042602  -0.044177   0.575578  -0.021305   0.003827
    17  C   -0.217693   0.007245  -0.014303  -0.021305   5.562621   0.422517
    18  H    0.008423  -0.008512  -0.000639   0.003827   0.422517   0.519989
    19  H    0.017128   0.003164  -0.000956   0.011251   0.397433  -0.042520
    20  H   -0.032310   0.002538  -0.005557  -0.002470   0.411539  -0.011926
    21  C   -0.045556   0.011765   0.002810  -0.002238  -0.024926  -0.028290
    22  C    0.011666  -0.005846  -0.006974   0.001104   0.029962   0.053124
    23  C   -0.021136  -0.003863  -0.000212   0.000786   0.024040   0.003998
    24  H    0.002422   0.001699   0.000291  -0.000716   0.007493  -0.007664
    25  H    0.000195  -0.000746   0.002628   0.000276  -0.005882  -0.001609
    26  H    0.001033  -0.000052  -0.000323   0.000045  -0.000579   0.004005
    27  H    0.000202   0.000166   0.000126  -0.000020  -0.000575  -0.000581
    28  H   -0.002524  -0.000117  -0.000164  -0.000055   0.001195   0.000017
    29  H    0.000609  -0.000522   0.000211  -0.000051   0.006034   0.000296
    30  C    0.026664  -0.007315  -0.000394   0.010068   0.036661  -0.000513
    31  C   -0.004269  -0.000714  -0.000200  -0.002227   0.000008  -0.001000
    32  C   -0.054773   0.023571  -0.015385  -0.004153  -0.004843   0.002908
    33  H    0.001070   0.000785   0.000027  -0.000044  -0.000071  -0.000048
    34  H   -0.000929   0.002220  -0.000522   0.000080  -0.000040  -0.000051
    35  H    0.000572   0.000075   0.000266  -0.000051  -0.000226  -0.000046
    36  H    0.000418  -0.002443  -0.000269  -0.000292   0.000238   0.000093
    37  H   -0.000053   0.000360   0.001148  -0.000367  -0.000192  -0.000276
    38  H   -0.016861  -0.005272  -0.018295   0.005038  -0.001201   0.001891
    39  H   -0.007417  -0.001819   0.000479  -0.000262   0.011269  -0.000806
    40  H    0.009100  -0.003319  -0.000668  -0.001352   0.000500   0.001707
              19         20         21         22         23         24
     1  C   -0.010508   0.002691   0.083926   0.040726   0.060944   0.019113
     2  C   -0.000902  -0.001693   0.173854  -0.063277  -0.017454   0.049742
     3  C   -0.012109  -0.004940  -0.632933   0.067808   0.136050   0.003429
     4  C   -0.045940   0.104761   0.127688  -0.112151   0.072224   0.005242
     5  C    0.020112  -0.019287  -0.135131   0.028861  -0.007823   0.017638
     6  C    0.019043  -0.003131   0.032440  -0.000625   0.004355  -0.017996
     7  H   -0.000453   0.000138  -0.000212   0.000591  -0.001542   0.000249
     8  H    0.000224  -0.000165  -0.013300  -0.000475   0.036746   0.003916
     9  H    0.008453  -0.000907  -0.003146  -0.000545  -0.000558  -0.000336
    10  H    0.000912  -0.000199   0.000835  -0.000457   0.000175   0.000025
    11  N   -0.059891  -0.089245  -0.114767   0.117842   0.006473  -0.000596
    12  B   -0.000914  -0.016104   0.061609  -0.589831  -0.979296  -0.286942
    13  C    0.017128  -0.032310  -0.045556   0.011666  -0.021136   0.002422
    14  H    0.003164   0.002538   0.011765  -0.005846  -0.003863   0.001699
    15  H   -0.000956  -0.005557   0.002810  -0.006974  -0.000212   0.000291
    16  H    0.011251  -0.002470  -0.002238   0.001104   0.000786  -0.000716
    17  C    0.397433   0.411539  -0.024926   0.029962   0.024040   0.007493
    18  H   -0.042520  -0.011926  -0.028290   0.053124   0.003998  -0.007664
    19  H    0.592543  -0.045492   0.005940  -0.003885  -0.000997   0.002086
    20  H   -0.045492   0.526084  -0.000295  -0.007452  -0.000375   0.001875
    21  C    0.005940  -0.000295   6.446240  -0.311356  -0.328416   0.061283
    22  C   -0.003885  -0.007452  -0.311356   6.231687   0.076070   0.365559
    23  C   -0.000997  -0.000375  -0.328416   0.076070   6.279557   0.007756
    24  H    0.002086   0.001875   0.061283   0.365559   0.007756   0.647837
    25  H    0.004290  -0.008695  -0.027506   0.350399   0.007426  -0.042407
    26  H   -0.000405  -0.000720  -0.102946   0.438106  -0.013102  -0.057640
    27  H    0.000017  -0.000094  -0.082721  -0.021117   0.429115  -0.004129
    28  H   -0.000185   0.000076  -0.010721   0.034664   0.368993  -0.002144
    29  H    0.000169  -0.000062   0.023302  -0.016015   0.481631   0.039939
    30  C    0.002789   0.001648  -0.249505  -0.081013   0.085636   0.030658
    31  C    0.000451  -0.001881   0.406829   0.005435   0.015952  -0.018469
    32  C   -0.002967   0.006268   0.192611   0.069815  -0.050406  -0.034783
    33  H   -0.000019   0.000032  -0.010133  -0.007928   0.008015  -0.002236
    34  H   -0.000030   0.000073   0.011531   0.001477  -0.000530   0.000098
    35  H    0.000090  -0.000120   0.041206  -0.008036  -0.021256  -0.002999
    36  H    0.000050  -0.000187   0.012003   0.002708   0.000928   0.000152
    37  H   -0.000126   0.000791  -0.074100   0.003286  -0.001882  -0.000605
    38  H   -0.000069   0.002468   0.049095   0.007311   0.009770  -0.002655
    39  H    0.000764  -0.001688   0.536527  -0.050964  -0.001902   0.035913
    40  H   -0.000432   0.001252  -0.050360  -0.033582  -0.017591  -0.010055
              25         26         27         28         29         30
     1  C   -0.004762   0.001254  -0.007794   0.019093   0.045532   0.017511
     2  C   -0.001586  -0.004537  -0.010815  -0.001190   0.037113  -0.059150
     3  C   -0.013118  -0.000046   0.018372  -0.044111  -0.036335  -0.033563
     4  C    0.043827  -0.004296   0.000403   0.000512   0.024115   0.034052
     5  C   -0.009531  -0.000351   0.000536  -0.003226  -0.013358  -0.099605
     6  C   -0.000971   0.000881   0.000740   0.001850   0.000676   0.008768
     7  H   -0.000168   0.000085  -0.000083   0.000131  -0.000790   0.001010
     8  H    0.000319  -0.001008   0.001308  -0.001053   0.003231   0.005592
     9  H   -0.000126   0.000118   0.000021  -0.000079  -0.000812  -0.005130
    10  H    0.000194  -0.000028   0.000012  -0.000040   0.000595   0.000425
    11  N   -0.008852   0.005563   0.000604   0.001433   0.002065   0.065298
    12  B    0.020545   0.075454   0.064232  -0.022074  -0.317571   0.660763
    13  C    0.000195   0.001033   0.000202  -0.002524   0.000609   0.026664
    14  H   -0.000746  -0.000052   0.000166  -0.000117  -0.000522  -0.007315
    15  H    0.002628  -0.000323   0.000126  -0.000164   0.000211  -0.000394
    16  H    0.000276   0.000045  -0.000020  -0.000055  -0.000051   0.010068
    17  C   -0.005882  -0.000579  -0.000575   0.001195   0.006034   0.036661
    18  H   -0.001609   0.004005  -0.000581   0.000017   0.000296  -0.000513
    19  H    0.004290  -0.000405   0.000017  -0.000185   0.000169   0.002789
    20  H   -0.008695  -0.000720  -0.000094   0.000076  -0.000062   0.001648
    21  C   -0.027506  -0.102946  -0.082721  -0.010721   0.023302  -0.249505
    22  C    0.350399   0.438106  -0.021117   0.034664  -0.016015  -0.081013
    23  C    0.007426  -0.013102   0.429115   0.368993   0.481631   0.085636
    24  H   -0.042407  -0.057640  -0.004129  -0.002144   0.039939   0.030658
    25  H    0.574555  -0.020362   0.000659  -0.005539  -0.003108   0.016530
    26  H   -0.020362   0.530912   0.004700   0.001547  -0.009745  -0.008535
    27  H    0.000659   0.004700   0.532070  -0.017695  -0.036562   0.002858
    28  H   -0.005539   0.001547  -0.017695   0.541410  -0.024586  -0.013619
    29  H   -0.003108  -0.009745  -0.036562  -0.024586   0.551753   0.028129
    30  C    0.016530  -0.008535   0.002858  -0.013619   0.028129   6.162007
    31  C   -0.001160   0.001673  -0.002212   0.026266  -0.003532  -0.588571
    32  C   -0.004531   0.007989  -0.001909   0.011729  -0.013718  -0.388996
    33  H    0.000665   0.000356   0.002683  -0.010589  -0.001071   0.083460
    34  H   -0.000237   0.000200  -0.000338   0.000621  -0.000175  -0.085589
    35  H   -0.000358   0.000004  -0.000257  -0.006687   0.002926  -0.093763
    36  H   -0.000001  -0.000205   0.000145   0.000407   0.000367  -0.088356
    37  H   -0.001232   0.000937   0.001719  -0.001083   0.000689   0.111218
    38  H   -0.001048   0.000735  -0.001227   0.001471  -0.001538  -0.122700
    39  H   -0.000829  -0.036010  -0.026255   0.005548   0.032242   0.097460
    40  H    0.000211   0.000645   0.000940  -0.007044  -0.003258   0.455493
              31         32         33         34         35         36
     1  C    0.060115   0.035929  -0.001397   0.001032   0.009044  -0.000500
     2  C   -0.053383   0.197947   0.018051  -0.008004  -0.009802   0.000221
     3  C   -0.174744  -0.171508  -0.018556   0.005453  -0.006811  -0.004699
     4  C   -0.009795   0.016919  -0.006052   0.003022  -0.001284   0.001547
     5  C   -0.054871   0.036938   0.003168  -0.000951  -0.007530  -0.001152
     6  C    0.041128  -0.027116   0.000914   0.000016   0.002864   0.001179
     7  H   -0.002804   0.001039  -0.000312   0.000070   0.000070  -0.000041
     8  H    0.006323  -0.005126   0.005594  -0.001775  -0.007556   0.000086
     9  H   -0.002210   0.003337  -0.000094   0.000019  -0.000171  -0.000177
    10  H    0.000236  -0.000384   0.000015  -0.000010  -0.000037   0.000026
    11  N    0.036616  -0.074883  -0.000847  -0.000808   0.005703   0.000651
    12  B   -1.142055  -0.847892  -0.111256   0.076440  -0.115850   0.035098
    13  C   -0.004269  -0.054773   0.001070  -0.000929   0.000572   0.000418
    14  H   -0.000714   0.023571   0.000785   0.002220   0.000075  -0.002443
    15  H   -0.000200  -0.015385   0.000027  -0.000522   0.000266  -0.000269
    16  H   -0.002227  -0.004153  -0.000044   0.000080  -0.000051  -0.000292
    17  C    0.000008  -0.004843  -0.000071  -0.000040  -0.000226   0.000238
    18  H   -0.001000   0.002908  -0.000048  -0.000051  -0.000046   0.000093
    19  H    0.000451  -0.002967  -0.000019  -0.000030   0.000090   0.000050
    20  H   -0.001881   0.006268   0.000032   0.000073  -0.000120  -0.000187
    21  C    0.406829   0.192611  -0.010133   0.011531   0.041206   0.012003
    22  C    0.005435   0.069815  -0.007928   0.001477  -0.008036   0.002708
    23  C    0.015952  -0.050406   0.008015  -0.000530  -0.021256   0.000928
    24  H   -0.018469  -0.034783  -0.002236   0.000098  -0.002999   0.000152
    25  H   -0.001160  -0.004531   0.000665  -0.000237  -0.000358  -0.000001
    26  H    0.001673   0.007989   0.000356   0.000200   0.000004  -0.000205
    27  H   -0.002212  -0.001909   0.002683  -0.000338  -0.000257   0.000145
    28  H    0.026266   0.011729  -0.010589   0.000621  -0.006687   0.000407
    29  H   -0.003532  -0.013718  -0.001071  -0.000175   0.002926   0.000367
    30  C   -0.588571  -0.388996   0.083460  -0.085589  -0.093763  -0.088356
    31  C    6.834603   0.021861   0.366621   0.402717   0.484845  -0.002659
    32  C    0.021861   6.478298  -0.013216  -0.001059   0.040082   0.417032
    33  H    0.366621  -0.013216   0.543665  -0.035943  -0.034899  -0.003299
    34  H    0.402717  -0.001059  -0.035943   0.514218  -0.021903   0.003966
    35  H    0.484845   0.040082  -0.034899  -0.021903   0.561531   0.000361
    36  H   -0.002659   0.417032  -0.003299   0.003966   0.000361   0.538887
    37  H   -0.055669   0.325459   0.020238  -0.005481  -0.003970  -0.035265
    38  H    0.067708   0.478205  -0.005789   0.004777  -0.002702  -0.022380
    39  H    0.031907  -0.063091  -0.013795  -0.001708   0.001288   0.002019
    40  H   -0.029971  -0.009753   0.021406  -0.034580   0.016433  -0.027218
              37         38         39         40
     1  C   -0.002560   0.005169   0.021880  -0.023652
     2  C   -0.000399   0.008088   0.037825   0.012715
     3  C    0.013360  -0.022654  -0.042395   0.027922
     4  C   -0.008303   0.082477  -0.006210  -0.048371
     5  C    0.005022  -0.020654  -0.007081   0.027534
     6  C    0.000068  -0.003993   0.002826  -0.003237
     7  H   -0.000050   0.000034  -0.000273  -0.000663
     8  H    0.000263  -0.000164   0.000922   0.003110
     9  H    0.000096   0.000309  -0.000747  -0.000369
    10  H   -0.000008   0.000041   0.000092   0.000121
    11  N    0.001906  -0.017818  -0.007006   0.007306
    12  B    0.035761  -0.153647  -0.375651  -0.182635
    13  C   -0.000053  -0.016861  -0.007417   0.009100
    14  H    0.000360  -0.005272  -0.001819  -0.003319
    15  H    0.001148  -0.018295   0.000479  -0.000668
    16  H   -0.000367   0.005038  -0.000262  -0.001352
    17  C   -0.000192  -0.001201   0.011269   0.000500
    18  H   -0.000276   0.001891  -0.000806   0.001707
    19  H   -0.000126  -0.000069   0.000764  -0.000432
    20  H    0.000791   0.002468  -0.001688   0.001252
    21  C   -0.074100   0.049095   0.536527  -0.050360
    22  C    0.003286   0.007311  -0.050964  -0.033582
    23  C   -0.001882   0.009770  -0.001902  -0.017591
    24  H   -0.000605  -0.002655   0.035913  -0.010055
    25  H   -0.001232  -0.001048  -0.000829   0.000211
    26  H    0.000937   0.000735  -0.036010   0.000645
    27  H    0.001719  -0.001227  -0.026255   0.000940
    28  H   -0.001083   0.001471   0.005548  -0.007044
    29  H    0.000689  -0.001538   0.032242  -0.003258
    30  C    0.111218  -0.122700   0.097460   0.455493
    31  C   -0.055669   0.067708   0.031907  -0.029971
    32  C    0.325459   0.478205  -0.063091  -0.009753
    33  H    0.020238  -0.005789  -0.013795   0.021406
    34  H   -0.005481   0.004777  -0.001708  -0.034580
    35  H   -0.003970  -0.002702   0.001288   0.016433
    36  H   -0.035265  -0.022380   0.002019  -0.027218
    37  H    0.560646  -0.059238  -0.012710   0.022054
    38  H   -0.059238   0.621602   0.009712  -0.009960
    39  H   -0.012710   0.009712   0.661720  -0.015432
    40  H    0.022054  -0.009960  -0.015432   0.692691
 Mulliken charges:
               1
     1  C   -0.443442
     2  C   -0.059187
     3  C    0.311611
     4  C   -0.325438
     5  C   -0.027347
     6  C   -0.508856
     7  H    0.221322
     8  H    0.252608
     9  H    0.204276
    10  H    0.229479
    11  N    0.174188
    12  B   -0.288346
    13  C   -0.335074
    14  H    0.151540
    15  H    0.201792
    16  H    0.160099
    17  C   -0.304777
    18  H    0.166262
    19  H    0.141890
    20  H    0.192763
    21  C   -0.032933
    22  C   -0.616671
    23  C   -0.648301
    24  H    0.187956
    25  H    0.141647
    26  H    0.184648
    27  H    0.152755
    28  H    0.157562
    29  H    0.201183
    30  C   -0.018380
    31  C   -0.658895
    32  C   -0.577444
    33  H    0.200830
    34  H    0.172632
    35  H    0.178954
    36  H    0.170559
    37  H    0.158550
    38  H    0.133965
    39  H    0.183661
    40  H    0.212359
 Sum of Mulliken charges =  -0.00000
 Mulliken charges with hydrogens summed into heavy atoms:
               1
     1  C   -0.222120
     2  C    0.193420
     3  C    0.311611
     4  C   -0.325438
     5  C    0.176929
     6  C   -0.279377
    11  N    0.174188
    12  B   -0.288346
    13  C    0.178357
    17  C    0.196138
    21  C    0.150729
    22  C   -0.102420
    23  C   -0.136802
    30  C    0.193979
    31  C   -0.106479
    32  C   -0.114370
 Electronic spatial extent (au):  <R**2>=           8297.8352
 Charge=              0.0000 electrons
 Dipole moment (field-independent basis, Debye):
    X=             -0.4332    Y=              1.0827    Z=             -0.2211  Tot=              1.1870
 Quadrupole moment (field-independent basis, Debye-Ang):
   XX=           -101.3581   YY=            -90.3898   ZZ=           -102.8705
   XY=             -0.0683   XZ=              0.1899   YZ=             -3.9750
 Traceless Quadrupole moment (field-independent basis, Debye-Ang):
   XX=             -3.1519   YY=              7.8163   ZZ=             -4.6644
   XY=             -0.0683   XZ=              0.1899   YZ=             -3.9750
 Octapole moment (field-independent basis, Debye-Ang**2):
  XXX=           -630.7844  YYY=           -712.0328  ZZZ=              4.9064  XYY=           -196.9056
  XXY=           -263.8118  XXZ=              1.5280  XZZ=           -200.6429  YZZ=           -261.4487
  YYZ=            -16.0303  XYZ=              0.3673
 Hexadecapole moment (field-independent basis, Debye-Ang**3):
 XXXX=          -4904.4826 YYYY=          -5291.8532 ZZZZ=          -1144.7933 XXXY=          -1540.8147
 XXXZ=           -107.8399 YYYX=          -1392.4143 YYYZ=             -6.6844 ZZZX=            -85.6576
 ZZZY=             80.5128 XXYY=          -1753.9388 XXZZ=           -997.6547 YYZZ=          -1121.0015
 XXYZ=             22.6284 YYXZ=            -40.4089 ZZXY=           -472.4857
 N-N= 1.149071406130D+03 E-N=-3.752907766014D+03  KE= 6.245066193612D+02
 Breneman (CHELPG) radii used.
 Generate Potential Derived Charges using the Breneman model, NDens= 1.
 Grid spacing= 0.300 Box extension= 2.800
 NStep X,Y,Z=   47     43     41   Total possible points=       82861
 Number of Points to Fit=   19772

 **********************************************************************

            Electrostatic Properties Using The SCF Density.

 **********************************************************************

       Atomic Center    1 is at  -0.899441  1.176776  0.586833
       Atomic Center    2 is at   0.485457  1.057202  0.655342
       Atomic Center    3 is at   1.312620  2.100546  0.232773
       Atomic Center    4 is at   0.716565  3.264965 -0.250303
       Atomic Center    5 is at  -0.667142  3.391977 -0.328284
       Atomic Center    6 is at  -1.476510  2.341134  0.090133
       Atomic Center    7 is at  -1.530425  0.358000  0.915529
       Atomic Center    8 is at   0.920737  0.138731  1.037251
       Atomic Center    9 is at  -1.114441  4.303097 -0.712582
       Atomic Center   10 is at  -2.555558  2.431459  0.030126
       Atomic Center   11 is at   1.633134  4.310802 -0.643482
       Atomic Center   12 is at   2.891374  2.136690  0.246220
       Atomic Center   13 is at   1.648478  5.416937  0.308413
       Atomic Center   14 is at   1.841147  5.039023  1.313223
       Atomic Center   15 is at   2.448645  6.112337  0.040939
       Atomic Center   16 is at   0.697082  5.973180  0.322064
       Atomic Center   17 is at   1.422490  4.793774 -2.002792
       Atomic Center   18 is at   1.374263  3.949796 -2.691054
       Atomic Center   19 is at   0.499066  5.385571 -2.109596
       Atomic Center   20 is at   2.264657  5.428344 -2.291716
       Atomic Center   21 is at   3.703919  1.379326 -0.889230
       Atomic Center   22 is at   3.367589  1.866394 -2.303679
       Atomic Center   23 is at   3.420328 -0.131811 -0.775550
       Atomic Center   24 is at   2.300179  1.740391 -2.513989
       Atomic Center   25 is at   3.611068  2.923809 -2.433287
       Atomic Center   26 is at   3.924587  1.294524 -3.054181
       Atomic Center   27 is at   4.035661 -0.689844 -1.489207
       Atomic Center   28 is at   3.638077 -0.522930  0.223496
       Atomic Center   29 is at   2.371840 -0.350775 -1.000145
       Atomic Center   30 is at   3.643674  2.744316  1.504012
       Atomic Center   31 is at   4.199373  1.567144  2.330568
       Atomic Center   32 is at   4.767547  3.716910  1.127268
       Atomic Center   33 is at   4.949359  1.006007  1.763165
       Atomic Center   34 is at   4.680961  1.932089  3.243784
       Atomic Center   35 is at   3.412427  0.867128  2.630330
       Atomic Center   36 is at   5.249393  4.123724  2.023205
       Atomic Center   37 is at   5.542506  3.219965  0.535186
       Atomic Center   38 is at   4.386852  4.555323  0.537668
       Atomic Center   39 is at   4.779895  1.523195 -0.730404
       Atomic Center   40 is at   2.928590  3.276079  2.142692
   19772 points will be used for fitting atomic charges
 Fitting point charges to electrostatic potential
 Charges from ESP fit, RMS=   0.00314 RRMS=   0.40775:
 ESP charges:
               1
     1  C   -0.142131
     2  C   -0.120722
     3  C   -0.190056
     4  C    0.354981
     5  C   -0.273655
     6  C   -0.081311
     7  H    0.104473
     8  H    0.114263
     9  H    0.159682
    10  H    0.096241
    11  N   -0.285242
    12  B    0.254459
    13  C   -0.191794
    14  H    0.076050
    15  H    0.121390
    16  H    0.059306
    17  C   -0.070874
    18  H    0.042011
    19  H    0.036465
    20  H    0.085842
    21  C    0.178660
    22  C   -0.254791
    23  C   -0.076762
    24  H    0.046876
    25  H    0.030584
    26  H    0.058791
    27  H    0.002009
    28  H    0.011883
    29  H   -0.007970
    30  C    0.178433
    31  C   -0.171692
    32  C   -0.286522
    33  H    0.027708
    34  H    0.042577
    35  H    0.016612
    36  H    0.072679
    37  H    0.046778
    38  H    0.039732
    39  H   -0.046244
    40  H   -0.058717
 Sum of ESP charges =   0.00000
 ESP charges with hydrogens summed into heavy atoms:
               1
     1  C   -0.037658
     2  C   -0.006459
     3  C   -0.190056
     4  C    0.354981
     5  C   -0.113973
     6  C    0.014930
    11  N   -0.285242
    12  B    0.254459
    13  C    0.064951
    17  C    0.093443
    21  C    0.132415
    22  C   -0.118539
    23  C   -0.070841
    30  C    0.119716
    31  C   -0.084795
    32  C   -0.127333
 Charge=   0.00000 Dipole=    -0.4757     1.1327    -0.2059 Tot=     1.2457
 -----------------------------------------------------------------

              Electrostatic Properties (Atomic Units)

 -----------------------------------------------------------------
    Center     Electric         -------- Electric Field --------
               Potential          X             Y             Z
 -----------------------------------------------------------------
    1 Atom    -14.780323
    2 Atom    -14.779327
    3 Atom    -14.800141
    4 Atom    -14.749426
    5 Atom    -14.777482
    6 Atom    -14.778273
    7 Atom     -1.110851
    8 Atom     -1.113150
    9 Atom     -1.100545
   10 Atom     -1.108868
   11 Atom    -18.387101
   12 Atom    -11.477054
   13 Atom    -14.751994
   14 Atom     -1.115819
   15 Atom     -1.112762
   16 Atom     -1.118623
   17 Atom    -14.752254
   18 Atom     -1.115906
   19 Atom     -1.117848
   20 Atom     -1.113636
   21 Atom    -14.798012
   22 Atom    -14.794426
   23 Atom    -14.789632
   24 Atom     -1.136796
   25 Atom     -1.136885
   26 Atom     -1.137567
   27 Atom     -1.132696
   28 Atom     -1.129846
   29 Atom     -1.134151
   30 Atom    -14.797843
   31 Atom    -14.785984
   32 Atom    -14.793251
   33 Atom     -1.129764
   34 Atom     -1.130111
   35 Atom     -1.127860
   36 Atom     -1.135364
   37 Atom     -1.134738
   38 Atom     -1.135323
   39 Atom     -1.146435
   40 Atom     -1.146372
 -----------------------------------------------------------------
 Unable to Open any file for archive entry.
 1\1\GINC-IRENE4715\SP\RwB97XD\GenECP\C14H24B1N1\PENASFRA\09-Apr-2024\0
 \\# wb97xd/genecp scrf=(solvent=toluene,pcm) nosymm pop=(chelpg) scfcy
 c=300\\ipr_dimethylaniline_chelpg\\0,1\C,0,-0.899441,1.176776,0.586833
 \C,0,0.485457,1.057202,0.655342\C,0,1.31262,2.100546,0.232773\C,0,0.71
 6565,3.264965,-0.250303\C,0,-0.667142,3.391977,-0.328284\C,0,-1.47651,
 2.341134,0.090133\H,0,-1.530425,0.358,0.915529\H,0,0.920737,0.138731,1
 .037251\H,0,-1.114441,4.303097,-0.712582\H,0,-2.555558,2.431459,0.0301
 26\N,0,1.633134,4.310802,-0.643482\B,0,2.891374,2.13669,0.24622\C,0,1.
 648478,5.416937,0.308413\H,0,1.841147,5.039023,1.313223\H,0,2.448645,6
 .112337,0.040939\H,0,0.697082,5.97318,0.322064\C,0,1.42249,4.793774,-2
 .002792\H,0,1.374263,3.949796,-2.691054\H,0,0.499066,5.385571,-2.10959
 6\H,0,2.264657,5.428344,-2.291716\C,0,3.703919,1.379326,-0.88923\C,0,3
 .367589,1.866394,-2.303679\C,0,3.420328,-0.131811,-0.77555\H,0,2.30017
 9,1.740391,-2.513989\H,0,3.611068,2.923809,-2.433287\H,0,3.924587,1.29
 4524,-3.054181\H,0,4.035661,-0.689844,-1.489207\H,0,3.638077,-0.52293,
 0.223496\H,0,2.37184,-0.350775,-1.000145\C,0,3.643674,2.744316,1.50401
 2\C,0,4.199373,1.567144,2.330568\C,0,4.767547,3.71691,1.127268\H,0,4.9
 49359,1.006007,1.763165\H,0,4.680961,1.932089,3.243784\H,0,3.412427,0.
 867128,2.63033\H,0,5.249393,4.123724,2.023205\H,0,5.542506,3.219965,0.
 535186\H,0,4.386852,4.555323,0.537668\H,0,4.779895,1.523195,-0.730404\
 H,0,2.92859,3.276079,2.142692\\Version=AS64L-G16RevC.02\HF=-627.520464
 2\RMSD=2.544e-09\Dipole=-0.1704315,0.4259837,-0.0869732\Quadrupole=-2.
 343395,5.8112562,-3.4678611,-0.0507967,0.1412083,-2.9552818\PG=C01 [X(
 C14H24B1N1)]\\@
 The archive entry for this job was punched.


 MAN IS A SINGULAR CREATURE.  HE HAS A SET OF GIFTS
 WHICH MAKE HIM UNIQUE AMONG THE ANIMALS: SO THAT, 
 UNLIKE THEM, HE IS NOT A FIGURE IN THE LANDSCAPE --
 HE IS A SHAPER OF THE LANDSCAPE.

                       -- JACOB BRONOWSKI
 Job cpu time:       0 days  1 hours 54 minutes 25.0 seconds.
 Elapsed time:       0 days  0 hours  1 minutes  7.5 seconds.
 File lengths (MBytes):  RWF=    251 Int=      0 D2E=      0 Chk=     18 Scr=      1
 Normal termination of Gaussian 16 at Tue Apr  9 17:19:12 2024.
