 Entering Gaussian System, Link 0=/ccc/products/gaussian-16-C.02/system/default/g16/g16
 Input=me_aniline_chelpg.gjf
 Output=me_aniline_chelpg.log
 Initial command:
 /ccc/products/gaussian-16-C.02/system/default/g16/l1.exe "/ccc/scratch/cont003/gen7343/penasfra/flp/b-n_flp/me_aniline/Reactant/Gau-97444.inp" -scrdir="/ccc/scratch/cont003/gen7343/penasfra/flp/b-n_flp/me_aniline/Reactant/"
 Entering Link 1 = /ccc/products/gaussian-16-C.02/system/default/g16/l1.exe PID=     97493.
  
 Copyright (c) 1988-2021, Gaussian, Inc.  All Rights Reserved.
  
 This is part of the Gaussian(R) 16 program.  It is based on
 the Gaussian(R) 09 system (copyright 2009, Gaussian, Inc.),
 the Gaussian(R) 03 system (copyright 2003, Gaussian, Inc.),
 the Gaussian(R) 98 system (copyright 1998, Gaussian, Inc.),
 the Gaussian(R) 94 system (copyright 1995, Gaussian, Inc.),
 the Gaussian 92(TM) system (copyright 1992, Gaussian, Inc.),
 the Gaussian 90(TM) system (copyright 1990, Gaussian, Inc.),
 the Gaussian 88(TM) system (copyright 1988, Gaussian, Inc.),
 the Gaussian 86(TM) system (copyright 1986, Carnegie Mellon
 University), and the Gaussian 82(TM) system (copyright 1983,
 Carnegie Mellon University). Gaussian is a federally registered
 trademark of Gaussian, Inc.
  
 This software contains proprietary and confidential information,
 including trade secrets, belonging to Gaussian, Inc.
  
 This software is provided under written license and may be
 used, copied, transmitted, or stored only in accord with that
 written license.
  
 The following legend is applicable only to US Government
 contracts under FAR:
  
                    RESTRICTED RIGHTS LEGEND
  
 Use, reproduction and disclosure by the US Government is
 subject to restrictions as set forth in subparagraphs (a)
 and (c) of the Commercial Computer Software - Restricted
 Rights clause in FAR 52.227-19.
  
 Gaussian, Inc.
 340 Quinnipiac St., Bldg. 40, Wallingford CT 06492
  
  
 ---------------------------------------------------------------
 Warning -- This program may not be used in any manner that
 competes with the business of Gaussian, Inc. or will provide
 assistance to any competitor of Gaussian, Inc.  The licensee
 of this program is prohibited from giving any competitor of
 Gaussian, Inc. access to this program.  By using this program,
 the user acknowledges that Gaussian, Inc. is engaged in the
 business of creating and licensing software in the field of
 computational chemistry and represents and warrants to the
 licensee that it is not a competitor of Gaussian, Inc. and that
 it will not use this program in any manner prohibited above.
 ---------------------------------------------------------------
  

 Cite this work as:
 Gaussian 16, Revision C.02,
 M. J. Frisch, G. W. Trucks, H. B. Schlegel, G. E. Scuseria, 
 M. A. Robb, J. R. Cheeseman, G. Scalmani, V. Barone, 
 G. A. Petersson, H. Nakatsuji, X. Li, M. Caricato, A. V. Marenich, 
 J. Bloino, B. G. Janesko, R. Gomperts, B. Mennucci, H. P. Hratchian, 
 J. V. Ortiz, A. F. Izmaylov, J. L. Sonnenberg, D. Williams-Young, 
 F. Ding, F. Lipparini, F. Egidi, J. Goings, B. Peng, A. Petrone, 
 T. Henderson, D. Ranasinghe, V. G. Zakrzewski, J. Gao, N. Rega, 
 G. Zheng, W. Liang, M. Hada, M. Ehara, K. Toyota, R. Fukuda, 
 J. Hasegawa, M. Ishida, T. Nakajima, Y. Honda, O. Kitao, H. Nakai, 
 T. Vreven, K. Throssell, J. A. Montgomery, Jr., J. E. Peralta, 
 F. Ogliaro, M. J. Bearpark, J. J. Heyd, E. N. Brothers, K. N. Kudin, 
 V. N. Staroverov, T. A. Keith, R. Kobayashi, J. Normand, 
 K. Raghavachari, A. P. Rendell, J. C. Burant, S. S. Iyengar, 
 J. Tomasi, M. Cossi, J. M. Millam, M. Klene, C. Adamo, R. Cammi, 
 J. W. Ochterski, R. L. Martin, K. Morokuma, O. Farkas, 
 J. B. Foresman, and D. J. Fox, Gaussian, Inc., Wallingford CT, 2019.
 
 ******************************************
 Gaussian 16:  AS64L-G16RevC.02  7-Dec-2021
                10-Apr-2024 
 ******************************************
 %nprocshared=128
 Will use up to  128 processors via shared memory.
 %mem=30GB
 %chk=me_aniline_chelpg.chk
 ----------------------------------------------------------------------
 # wb97xd/genecp scrf=(solvent=toluene,pcm) nosymm pop=(chelpg) scfcyc=
 300
 ----------------------------------------------------------------------
 1/38=1,172=1/1;
 2/12=2,15=1,17=6,18=5,40=1/2;
 3/5=7,11=2,16=1,17=8,25=1,30=1,70=2201,72=13,74=-58/1,2,3;
 4//1;
 5/5=2,7=300,38=5,53=13/2;
 6/7=2,8=2,9=2,10=2,15=8,20=3,28=1/1,2;
 99/5=1,9=1/99;
 -----------------
 me_aniline_chelpg
 -----------------
 Symbolic Z-matrix:
 Charge =  0 Multiplicity = 1
 C                    -0.69253   0.96766   0.88592 
 C                     0.68737   1.07507   0.88593 
 C                     1.38028   2.16134   0.31536 
 C                     0.58923   3.20006  -0.24079 
 C                    -0.8117    3.09732  -0.2307 
 C                    -1.44135   1.99618   0.31719 
 H                    -1.18031   0.10412   1.32228 
 H                     1.26555   0.27175   1.33011 
 H                    -1.40334   3.89873  -0.66299 
 H                    -2.52497   1.94269   0.30737 
 N                     1.14895   4.32428  -0.8269 
 B                     2.94198   2.07401   0.25982 
 C                     3.82331   2.86977  -0.78482 
 H                     3.31445   3.13686  -1.7139 
 H                     4.16137   3.8085   -0.31724 
 H                     4.74097   2.32292  -1.0236 
 C                     3.7218    1.10506   1.2351 
 H                     3.8684    0.14765   0.71329 
 H                     4.72779   1.47942   1.45075 
 H                     3.22022   0.88269   2.17993 
 H                     2.07627   4.58416  -0.53786 
 H                     0.53346   5.11502  -0.93076 
 
                          Input orientation:                          
 ---------------------------------------------------------------------
 Center     Atomic      Atomic             Coordinates (Angstroms)
 Number     Number       Type             X           Y           Z
 ---------------------------------------------------------------------
      1          6           0       -0.692534    0.967658    0.885918
      2          6           0        0.687371    1.075066    0.885933
      3          6           0        1.380277    2.161344    0.315363
      4          6           0        0.589234    3.200062   -0.240794
      5          6           0       -0.811695    3.097323   -0.230703
      6          6           0       -1.441354    1.996182    0.317192
      7          1           0       -1.180310    0.104116    1.322278
      8          1           0        1.265554    0.271747    1.330113
      9          1           0       -1.403340    3.898731   -0.662994
     10          1           0       -2.524965    1.942690    0.307372
     11          7           0        1.148947    4.324277   -0.826904
     12          5           0        2.941982    2.074012    0.259822
     13          6           0        3.823307    2.869771   -0.784816
     14          1           0        3.314452    3.136860   -1.713900
     15          1           0        4.161373    3.808501   -0.317235
     16          1           0        4.740969    2.322915   -1.023595
     17          6           0        3.721804    1.105057    1.235095
     18          1           0        3.868398    0.147654    0.713290
     19          1           0        4.727789    1.479424    1.450753
     20          1           0        3.220223    0.882685    2.179927
     21          1           0        2.076274    4.584159   -0.537856
     22          1           0        0.533461    5.115019   -0.930757
 ---------------------------------------------------------------------
                    Distance matrix (angstroms):
                    1          2          3          4          5
     1  C    0.000000
     2  C    1.384079   0.000000
     3  C    2.459058   1.409138   0.000000
     4  C    2.809989   2.407229   1.419153   0.000000
     5  C    2.407595   2.753833   2.445197   1.404727   0.000000
     6  C    1.393572   2.388177   2.826461   2.425688   1.381728
     7  H    1.083531   2.149738   3.435502   3.893502   3.392184
     8  H    2.125020   1.084856   2.147896   3.391192   3.838618
     9  H    3.390511   3.839705   3.424065   2.153310   1.085898
    10  H    2.154810   3.377367   3.911367   3.402897   2.134946
    11  N    4.194246   3.701923   2.456943   1.385880   2.388512
    12  B    3.850418   2.544244   1.565131   2.655942   3.921463
    13  C    5.177085   3.980762   2.771400   3.296101   4.673549
    14  H    5.245992   4.232219   2.968261   3.098524   4.384806
    15  H    5.751381   4.581263   3.293600   3.624392   5.024407
    16  H    5.916580   4.651353   3.621210   4.314982   5.662196
    17  C    4.430258   3.054603   2.728442   4.047257   5.164330
    18  H    4.637274   3.317956   3.225529   4.580435   5.612035
    19  H    5.473650   4.099696   3.599995   4.790570   6.010888
    20  H    4.122056   2.850749   2.914956   4.260543   5.193469
    21  H    4.772055   4.033604   2.661283   2.053109   3.262727
    22  H    4.690839   4.432299   3.315736   2.036227   2.524008
                    6          7          8          9         10
     6  C    0.000000
     7  H    2.158299   0.000000
     8  H    3.365566   2.451614   0.000000
     9  H    2.140538   4.288374   4.924478   0.000000
    10  H    1.084975   2.493689   4.266859   2.454740   0.000000
    11  N    3.665875   5.277706   4.592311   2.592706   4.522850
    12  B    4.384402   4.690692   2.684044   4.802396   5.468731
    13  C    5.449242   6.093019   4.214825   5.328362   6.507911
    14  H    5.295675   6.214403   4.655413   4.893098   6.293677
    15  H    5.922630   6.704032   4.858822   5.576174   6.969828
    16  H    6.334476   6.744460   4.671803   6.353406   7.396610
    17  C    5.319290   5.004019   2.595496   6.137952   6.370590
    18  H    5.636259   5.085491   2.677810   6.614829   6.652970
    19  H    6.293673   6.067422   3.668802   6.921829   7.356927
    20  H    5.141980   4.550431   2.217242   6.209353   6.134921
    21  H    4.449993   5.842621   4.769012   3.548688   5.372445
    22  H    3.896719   5.755200   5.394884   2.302662   4.577183
                   11         12         13         14         15
    11  N    0.000000
    12  B    3.075653   0.000000
    13  C    3.044595   1.581529   0.000000
    14  H    2.624144   2.272434   1.092459   0.000000
    15  H    3.098467   2.197353   1.101878   1.766083   0.000000
    16  H    4.116644   2.223840   1.094610   1.781566   1.744088
    17  C    4.608124   1.580555   2.684131   3.604266   3.148263
    18  H    5.216492   2.185117   3.107455   3.890175   3.814396
    19  H    5.107741   2.227321   2.783688   3.841828   2.978457
    20  H    5.017546   2.276726   3.619658   4.500230   3.960048
    21  H    1.005496   2.772468   2.460130   2.238490   2.235611
    22  H    1.007413   4.057854   3.985665   3.501476   3.904503
                   16         17         18         19         20
    16  H    0.000000
    17  C    2.761079   0.000000
    18  H    2.917175   1.100178   0.000000
    19  H    2.614201   1.094836   1.748146   0.000000
    20  H    3.827464   1.092584   1.763923   1.777793   0.000000
    21  H    3.528423   4.237367   4.945670   4.541418   4.732428
    22  H    5.050504   5.562036   6.204789   6.039994   5.899805
                   21         22
    21  H    0.000000
    22  H    1.678230   0.000000
 Symmetry turned off by external request.
 Stoichiometry    C8H12BN
 Framework group  C1[X(C8H12BN)]
 Deg. of freedom    60
 Full point group                 C1      NOp   1
 Rotational constants (GHZ):           2.0733698           1.0905734           0.7354842
 General basis read from cards:  (5D, 7F)
 ======================================================================================================
                                       Pseudopotential Parameters
 ======================================================================================================
  Center     Atomic      Valence      Angular      Power
  Number     Number     Electrons     Momentum     of R      Exponent        Coefficient   SO-Coeffient
 ======================================================================================================
    1          6
                                   No pseudopotential on this center.
    2          6
                                   No pseudopotential on this center.
    3          6
                                   No pseudopotential on this center.
    4          6
                                   No pseudopotential on this center.
    5          6
                                   No pseudopotential on this center.
    6          6
                                   No pseudopotential on this center.
    7          1
                                   No pseudopotential on this center.
    8          1
                                   No pseudopotential on this center.
    9          1
                                   No pseudopotential on this center.
   10          1
                                   No pseudopotential on this center.
   11          7
                                   No pseudopotential on this center.
   12          5
                                   No pseudopotential on this center.
   13          6
                                   No pseudopotential on this center.
   14          1
                                   No pseudopotential on this center.
   15          1
                                   No pseudopotential on this center.
   16          1
                                   No pseudopotential on this center.
   17          6
                                   No pseudopotential on this center.
   18          1
                                   No pseudopotential on this center.
   19          1
                                   No pseudopotential on this center.
   20          1
                                   No pseudopotential on this center.
   21          1
                                   No pseudopotential on this center.
   22          1
                                   No pseudopotential on this center.
 ======================================================================================================
   304 basis functions,   468 primitive gaussians,   314 cartesian basis functions
    36 alpha electrons       36 beta electrons
       nuclear repulsion energy       480.9344693452 Hartrees.
 NAtoms=   22 NActive=   22 NUniq=   22 SFac= 1.00D+00 NAtFMM=   60 NAOKFM=F Big=F
 Integral buffers will be    131072 words long.
 Raffenetti 2 integral format.
 Two-electron integral symmetry is turned off.
 Nuclear repulsion after empirical dispersion term =      480.9212694461 Hartrees.
 ------------------------------------------------------------------------------
 Polarizable Continuum Model (PCM)
 =================================
 Model                : PCM.
 Atomic radii         : UFF (Universal Force Field).
 Polarization charges : Total charges.
 Charge compensation  : None.
 Solution method      : On-the-fly selection.
 Cavity type          : Scaled VdW (van der Waals Surface) (Alpha=1.100).
 Cavity algorithm     : GePol (No added spheres)
                        Default sphere list used, NSphG=   22.
                        Lebedev-Laikov grids with approx.  5.0 points / Ang**2.
                        Smoothing algorithm: York/Karplus (Gamma=1.0000).
                        Polarization charges: spherical gaussians, with
                                              point-specific exponents (IZeta= 3).
                        Self-potential: point-specific (ISelfS= 7).
                        Self-field    : sphere-specific E.n sum rule (ISelfD= 2).
 Solvent              : Toluene, Eps=   2.374100 Eps(inf)=   2.238315
 ------------------------------------------------------------------------------
 One-electron integrals computed using PRISM.
   1 Symmetry operations used in ECPInt.
 ECPInt:  NShTT=    7260 NPrTT=   23221 LenC2=    7081 LenP2D=   17375.
 LDataN:  DoStor=T MaxTD1= 4 Len=   56
 NBasis=   304 RedAO= T EigKep=  1.56D-06  NBF=   304
 NBsUse=   303 1.00D-06 EigRej=  5.57D-07 NBFU=   303
 ExpMin= 3.15D-02 ExpMax= 6.29D+03 ExpMxC= 9.49D+02 IAcc=3 IRadAn=         5 AccDes= 0.00D+00
 Harris functional with IExCor= 4639 and IRadAn=       5 diagonalized for initial guess.
 HarFok:  IExCor= 4639 AccDes= 0.00D+00 IRadAn=         5 IDoV= 1 UseB2=F ITyADJ=14
 ICtDFT=  3500011 ScaDFX=  1.000000  1.000000  1.000000  1.000000
 FoFCou: FMM=F IPFlag=           0 FMFlag=      100000 FMFlg1=           0
         NFxFlg=           0 DoJE=T BraDBF=F KetDBF=T FulRan=T
         wScrn=  0.000000 ICntrl=       500 IOpCl=  0 I1Cent=   200000004 NGrid=           0
         NMat0=    1 NMatS0=      1 NMatT0=    0 NMatD0=    1 NMtDS0=    0 NMtDT0=    0
 Symmetry not used in FoFCou.
 Requested convergence on RMS density matrix=1.00D-08 within 300 cycles.
 Requested convergence on MAX density matrix=1.00D-06.
 Requested convergence on             energy=1.00D-06.
 No special actions if energy rises.
 Inv3:  Mode=1 IEnd=     8457123.
 Iteration    1 A*A^-1 deviation from unit magnitude is 6.22D-15 for   1671.
 Iteration    1 A*A^-1 deviation from orthogonality  is 3.34D-15 for   1668   1165.
 Iteration    1 A^-1*A deviation from unit magnitude is 6.22D-15 for   1671.
 Iteration    1 A^-1*A deviation from orthogonality  is 1.62D-15 for   1671    952.
 Error on total polarization charges =  0.00966
 SCF Done:  E(RwB97XD) =  -391.678562649     A.U. after   16 cycles
            NFock= 16  Conv=0.42D-08     -V/T= 2.0046

 **********************************************************************

            Population analysis using the SCF Density.

 **********************************************************************

 Alpha  occ. eigenvalues --  -14.43890 -10.33634 -10.29215 -10.28791 -10.28136
 Alpha  occ. eigenvalues --  -10.27547 -10.26513 -10.24953 -10.24624  -6.84040
 Alpha  occ. eigenvalues --   -1.02762  -0.94148  -0.84959  -0.82617  -0.80437
 Alpha  occ. eigenvalues --   -0.77124  -0.70583  -0.69423  -0.61922  -0.60415
 Alpha  occ. eigenvalues --   -0.56842  -0.53151  -0.52296  -0.50823  -0.50314
 Alpha  occ. eigenvalues --   -0.49438  -0.47630  -0.46543  -0.46188  -0.44987
 Alpha  occ. eigenvalues --   -0.43324  -0.40379  -0.38745  -0.38270  -0.33242
 Alpha  occ. eigenvalues --   -0.28458
 Alpha virt. eigenvalues --    0.01795   0.03951   0.04992   0.05023   0.06117
 Alpha virt. eigenvalues --    0.06649   0.06710   0.07001   0.08350   0.08914
 Alpha virt. eigenvalues --    0.09281   0.09347   0.09731   0.10969   0.12086
 Alpha virt. eigenvalues --    0.12142   0.12620   0.13267   0.13776   0.14622
 Alpha virt. eigenvalues --    0.15232   0.16030   0.16469   0.16963   0.17671
 Alpha virt. eigenvalues --    0.18172   0.18488   0.19059   0.19082   0.19738
 Alpha virt. eigenvalues --    0.19922   0.20267   0.20465   0.21165   0.21318
 Alpha virt. eigenvalues --    0.22027   0.22304   0.22555   0.23668   0.23793
 Alpha virt. eigenvalues --    0.24301   0.24947   0.25158   0.25816   0.26330
 Alpha virt. eigenvalues --    0.26415   0.26845   0.27290   0.27600   0.28319
 Alpha virt. eigenvalues --    0.29474   0.29714   0.30693   0.31418   0.31572
 Alpha virt. eigenvalues --    0.31765   0.32282   0.33389   0.33750   0.35621
 Alpha virt. eigenvalues --    0.35884   0.36786   0.37367   0.37966   0.38572
 Alpha virt. eigenvalues --    0.39444   0.40311   0.41054   0.42242   0.42270
 Alpha virt. eigenvalues --    0.44077   0.45130   0.45824   0.48844   0.49673
 Alpha virt. eigenvalues --    0.54708   0.55582   0.55853   0.57419   0.58679
 Alpha virt. eigenvalues --    0.59667   0.61844   0.62684   0.62979   0.63540
 Alpha virt. eigenvalues --    0.64324   0.65442   0.65926   0.66681   0.67301
 Alpha virt. eigenvalues --    0.67766   0.69906   0.70908   0.71892   0.73285
 Alpha virt. eigenvalues --    0.74004   0.74443   0.75890   0.76724   0.77487
 Alpha virt. eigenvalues --    0.78320   0.79475   0.80023   0.80537   0.81642
 Alpha virt. eigenvalues --    0.82165   0.84695   0.84918   0.86878   0.87569
 Alpha virt. eigenvalues --    0.88314   0.91144   0.92467   0.93603   0.94722
 Alpha virt. eigenvalues --    0.95128   0.96363   0.97768   0.98501   0.99226
 Alpha virt. eigenvalues --    1.00491   1.02378   1.05477   1.06414   1.08531
 Alpha virt. eigenvalues --    1.09866   1.10376   1.12500   1.13094   1.16494
 Alpha virt. eigenvalues --    1.18517   1.19881   1.21619   1.22047   1.27005
 Alpha virt. eigenvalues --    1.29867   1.33472   1.37619   1.37982   1.42646
 Alpha virt. eigenvalues --    1.44176   1.48112   1.53367   1.54550   1.55321
 Alpha virt. eigenvalues --    1.57049   1.58943   1.61481   1.62759   1.62882
 Alpha virt. eigenvalues --    1.64934   1.66025   1.67212   1.68140   1.69238
 Alpha virt. eigenvalues --    1.70805   1.72361   1.74001   1.75024   1.77457
 Alpha virt. eigenvalues --    1.78593   1.80638   1.82137   1.83096   1.83694
 Alpha virt. eigenvalues --    1.85391   1.86736   1.87921   1.90985   1.95036
 Alpha virt. eigenvalues --    1.96546   1.97523   1.99374   1.99905   2.01095
 Alpha virt. eigenvalues --    2.02915   2.03253   2.05831   2.07074   2.08053
 Alpha virt. eigenvalues --    2.09409   2.13317   2.15597   2.16693   2.17931
 Alpha virt. eigenvalues --    2.22114   2.22922   2.25326   2.29446   2.33173
 Alpha virt. eigenvalues --    2.34731   2.37668   2.38894   2.42318   2.44347
 Alpha virt. eigenvalues --    2.48359   2.51259   2.54167   2.55223   2.56143
 Alpha virt. eigenvalues --    2.58051   2.58971   2.63305   2.64664   2.65411
 Alpha virt. eigenvalues --    2.66508   2.67178   2.69414   2.70559   2.72316
 Alpha virt. eigenvalues --    2.76480   2.76997   2.79219   2.80175   2.80966
 Alpha virt. eigenvalues --    2.81156   2.82584   2.83514   2.85160   2.86064
 Alpha virt. eigenvalues --    2.87735   2.89092   2.90458   2.93688   2.96017
 Alpha virt. eigenvalues --    3.00105   3.01185   3.02407   3.05198   3.06000
 Alpha virt. eigenvalues --    3.13817   3.15310   3.20211   3.21301   3.30895
 Alpha virt. eigenvalues --    3.42001   3.44940   3.48197   3.52629   3.57965
 Alpha virt. eigenvalues --    3.62859   3.66968   3.73802   3.78369   3.88312
 Alpha virt. eigenvalues --    3.93245   3.97148   3.97445   4.04564   4.11154
 Alpha virt. eigenvalues --    4.13940   4.18789   4.25453   4.29176   4.89346
 Alpha virt. eigenvalues --    4.94294   5.12184  14.79533  23.73871  24.07658
 Alpha virt. eigenvalues --   24.08949  24.13284  24.17545  24.18024  24.24499
 Alpha virt. eigenvalues --   24.33448  35.79479
          Condensed to atoms (all electrons):
               1          2          3          4          5          6
     1  C    6.478015  -0.200849  -0.732435   0.584375  -0.397382   0.477826
     2  C   -0.200849   7.125088   1.364126  -2.701855  -0.316081   0.076405
     3  C   -0.732435   1.364126  10.299443  -2.983673  -2.852229   0.611648
     4  C    0.584375  -2.701855  -2.983673  11.401427   1.227785  -0.823709
     5  C   -0.397382  -0.316081  -2.852229   1.227785   8.121067  -0.032660
     6  C    0.477826   0.076405   0.611648  -0.823709  -0.032660   5.574873
     7  H    0.402235  -0.052629   0.007536   0.025530  -0.001649  -0.048077
     8  H   -0.111508   0.395521  -0.057371   0.042268   0.048708  -0.007080
     9  H   -0.008159   0.000506  -0.066836  -0.123404   0.545315  -0.017490
    10  H   -0.053547   0.009289   0.038853  -0.008896  -0.077929   0.416257
    11  N    0.009774   0.064084  -0.065525   0.045263  -0.189276   0.049627
    12  B    0.013934   0.003758  -0.007147   0.228334   0.141595   0.046230
    13  C    0.023071  -0.075581  -0.261269   0.207219   0.020055  -0.000625
    14  H    0.009838   0.033219   0.187835  -0.160630  -0.071054   0.003226
    15  H    0.001682   0.038332   0.078822  -0.079282  -0.023906  -0.000460
    16  H   -0.001117  -0.024492  -0.010415   0.027702   0.004397  -0.001216
    17  C   -0.100541   0.253217  -0.095720  -0.260826   0.019501   0.015142
    18  H   -0.013176  -0.066219   0.007721   0.045151   0.006331  -0.002259
    19  H   -0.002413   0.030926  -0.029357  -0.015041   0.003180   0.000404
    20  H   -0.011944  -0.013998   0.014891   0.012628   0.005200  -0.000979
    21  H   -0.001787  -0.018924  -0.173894   0.089212   0.081617  -0.005200
    22  H   -0.008086   0.016482   0.151255  -0.087802  -0.118552   0.011708
               7          8          9         10         11         12
     1  C    0.402235  -0.111508  -0.008159  -0.053547   0.009774   0.013934
     2  C   -0.052629   0.395521   0.000506   0.009289   0.064084   0.003758
     3  C    0.007536  -0.057371  -0.066836   0.038853  -0.065525  -0.007147
     4  C    0.025530   0.042268  -0.123404  -0.008896   0.045263   0.228334
     5  C   -0.001649   0.048708   0.545315  -0.077929  -0.189276   0.141595
     6  C   -0.048077  -0.007080  -0.017490   0.416257   0.049627   0.046230
     7  H    0.471921  -0.008609   0.000617  -0.006051  -0.000495  -0.002212
     8  H   -0.008609   0.533906   0.000945   0.000314  -0.000488  -0.039870
     9  H    0.000617   0.000945   0.503328  -0.007981  -0.007728  -0.004862
    10  H   -0.006051   0.000314  -0.007981   0.473313  -0.001522  -0.000079
    11  N   -0.000495  -0.000488  -0.007728  -0.001522   6.694444  -0.055052
    12  B   -0.002212  -0.039870  -0.004862  -0.000079  -0.055052   4.203049
    13  C   -0.000335   0.002653   0.001318  -0.000067  -0.014302   0.363390
    14  H    0.000180  -0.003450  -0.000100   0.000012   0.030372  -0.105443
    15  H    0.000022  -0.002299  -0.000121   0.000084  -0.016141  -0.099481
    16  H   -0.000029  -0.000255   0.000168  -0.000063   0.002112  -0.069824
    17  C   -0.001128   0.010013  -0.000462  -0.000127   0.007381   0.364913
    18  H    0.000139  -0.002473  -0.000194  -0.000000  -0.000623  -0.104243
    19  H   -0.000133   0.002675  -0.000059  -0.000041   0.001827  -0.089210
    20  H   -0.000679   0.010787  -0.000109   0.000058  -0.000601  -0.087109
    21  H    0.000196   0.000946   0.002460  -0.000322   0.368248  -0.008042
    22  H   -0.000288  -0.000149  -0.000749   0.001117   0.378659   0.003982
              13         14         15         16         17         18
     1  C    0.023071   0.009838   0.001682  -0.001117  -0.100541  -0.013176
     2  C   -0.075581   0.033219   0.038332  -0.024492   0.253217  -0.066219
     3  C   -0.261269   0.187835   0.078822  -0.010415  -0.095720   0.007721
     4  C    0.207219  -0.160630  -0.079282   0.027702  -0.260826   0.045151
     5  C    0.020055  -0.071054  -0.023906   0.004397   0.019501   0.006331
     6  C   -0.000625   0.003226  -0.000460  -0.001216   0.015142  -0.002259
     7  H   -0.000335   0.000180   0.000022  -0.000029  -0.001128   0.000139
     8  H    0.002653  -0.003450  -0.002299  -0.000255   0.010013  -0.002473
     9  H    0.001318  -0.000100  -0.000121   0.000168  -0.000462  -0.000194
    10  H   -0.000067   0.000012   0.000084  -0.000063  -0.000127  -0.000000
    11  N   -0.014302   0.030372  -0.016141   0.002112   0.007381  -0.000623
    12  B    0.363390  -0.105443  -0.099481  -0.069824   0.364913  -0.104243
    13  C    5.358644   0.408732   0.395712   0.403274  -0.086207  -0.000494
    14  H    0.408732   0.553205  -0.020434  -0.021717  -0.010248  -0.004011
    15  H    0.395712  -0.020434   0.566778  -0.006612  -0.000636   0.002803
    16  H    0.403274  -0.021717  -0.006612   0.514447   0.012153   0.002773
    17  C   -0.086207  -0.010248  -0.000636   0.012153   5.330864   0.433675
    18  H   -0.000494  -0.004011   0.002803   0.002773   0.433675   0.527917
    19  H    0.008170  -0.001979  -0.000969   0.005302   0.411368  -0.001079
    20  H   -0.003144  -0.004091  -0.003198   0.000086   0.398007  -0.016931
    21  H    0.009412  -0.004573   0.001292   0.002490  -0.000731  -0.001442
    22  H    0.003608  -0.000571   0.000520   0.000137   0.000842   0.000261
              19         20         21         22
     1  C   -0.002413  -0.011944  -0.001787  -0.008086
     2  C    0.030926  -0.013998  -0.018924   0.016482
     3  C   -0.029357   0.014891  -0.173894   0.151255
     4  C   -0.015041   0.012628   0.089212  -0.087802
     5  C    0.003180   0.005200   0.081617  -0.118552
     6  C    0.000404  -0.000979  -0.005200   0.011708
     7  H   -0.000133  -0.000679   0.000196  -0.000288
     8  H    0.002675   0.010787   0.000946  -0.000149
     9  H   -0.000059  -0.000109   0.002460  -0.000749
    10  H   -0.000041   0.000058  -0.000322   0.001117
    11  N    0.001827  -0.000601   0.368248   0.378659
    12  B   -0.089210  -0.087109  -0.008042   0.003982
    13  C    0.008170  -0.003144   0.009412   0.003608
    14  H   -0.001979  -0.004091  -0.004573  -0.000571
    15  H   -0.000969  -0.003198   0.001292   0.000520
    16  H    0.005302   0.000086   0.002490   0.000137
    17  C    0.411368   0.398007  -0.000731   0.000842
    18  H   -0.001079  -0.016931  -0.001442   0.000261
    19  H    0.529756  -0.023352   0.000123   0.000235
    20  H   -0.023352   0.584812  -0.000762  -0.000051
    21  H    0.000123  -0.000762   0.422743  -0.035345
    22  H    0.000235  -0.000051  -0.035345   0.397014
 Mulliken charges:
               1
     1  C   -0.357803
     2  C    0.059675
     3  C    0.573742
     4  C   -0.691775
     5  C   -0.144035
     6  C   -0.343593
     7  H    0.213939
     8  H    0.184816
     9  H    0.183596
    10  H    0.217329
    11  N   -0.300038
    12  B    0.303386
    13  C   -0.763232
    14  H    0.181681
    15  H    0.167492
    16  H    0.160698
    17  C   -0.700451
    18  H    0.186373
    19  H    0.169666
    20  H    0.140479
    21  H    0.272284
    22  H    0.285772
 Sum of Mulliken charges =  -0.00000
 Mulliken charges with hydrogens summed into heavy atoms:
               1
     1  C   -0.143864
     2  C    0.244491
     3  C    0.573742
     4  C   -0.691775
     5  C    0.039561
     6  C   -0.126264
    11  N    0.258018
    12  B    0.303386
    13  C   -0.253361
    17  C   -0.203934
 Electronic spatial extent (au):  <R**2>=           3378.5901
 Charge=             -0.0000 electrons
 Dipole moment (field-independent basis, Debye):
    X=             -0.0479    Y=              1.7211    Z=              0.0989  Tot=              1.7246
 Quadrupole moment (field-independent basis, Debye-Ang):
   XX=            -57.3522   YY=            -45.4567   ZZ=            -66.2743
   XY=              1.6115   XZ=              0.8486   YZ=             -2.0122
 Traceless Quadrupole moment (field-independent basis, Debye-Ang):
   XX=             -0.9911   YY=             10.9043   ZZ=             -9.9132
   XY=              1.6115   XZ=              0.8486   YZ=             -2.0122
 Octapole moment (field-independent basis, Debye-Ang**2):
  XXX=           -234.8264  YYY=           -318.3449  ZZZ=            -32.9101  XYY=            -63.4224
  XXY=           -125.7810  XXZ=            -10.3033  XZZ=            -82.2272  YZZ=           -155.0861
  YYZ=            -22.3169  XYZ=              8.0045
 Hexadecapole moment (field-independent basis, Debye-Ang**3):
 XXXX=          -1974.4792 YYYY=          -1881.3571 ZZZZ=           -318.7948 XXXY=           -504.9522
 XXXZ=            -32.6529 YYYX=           -431.8645 YYYZ=             -4.3799 ZZZX=            -26.3923
 ZZZY=             75.4570 XXYY=           -680.1295 XXZZ=           -404.3266 YYZZ=           -506.5809
 XXYZ=             38.0230 YYXZ=             20.3853 ZZXY=           -187.6352
 N-N= 4.809212694461D+02 E-N=-1.870791029441D+03  KE= 3.898776165636D+02
 Breneman (CHELPG) radii used.
 Generate Potential Derived Charges using the Breneman model, NDens= 1.
 Grid spacing= 0.300 Box extension= 2.800
 NStep X,Y,Z=   44     37     33   Total possible points=       53724
 Number of Points to Fit=   13975

 **********************************************************************

            Electrostatic Properties Using The SCF Density.

 **********************************************************************

       Atomic Center    1 is at  -0.692534  0.967658  0.885918
       Atomic Center    2 is at   0.687371  1.075066  0.885933
       Atomic Center    3 is at   1.380277  2.161344  0.315363
       Atomic Center    4 is at   0.589234  3.200062 -0.240794
       Atomic Center    5 is at  -0.811695  3.097323 -0.230703
       Atomic Center    6 is at  -1.441354  1.996182  0.317192
       Atomic Center    7 is at  -1.180310  0.104116  1.322278
       Atomic Center    8 is at   1.265554  0.271747  1.330113
       Atomic Center    9 is at  -1.403340  3.898731 -0.662994
       Atomic Center   10 is at  -2.524965  1.942690  0.307372
       Atomic Center   11 is at   1.148947  4.324277 -0.826904
       Atomic Center   12 is at   2.941982  2.074012  0.259822
       Atomic Center   13 is at   3.823307  2.869771 -0.784816
       Atomic Center   14 is at   3.314452  3.136860 -1.713900
       Atomic Center   15 is at   4.161373  3.808501 -0.317235
       Atomic Center   16 is at   4.740969  2.322915 -1.023595
       Atomic Center   17 is at   3.721804  1.105057  1.235095
       Atomic Center   18 is at   3.868398  0.147654  0.713290
       Atomic Center   19 is at   4.727789  1.479424  1.450753
       Atomic Center   20 is at   3.220223  0.882685  2.179927
       Atomic Center   21 is at   2.076274  4.584159 -0.537856
       Atomic Center   22 is at   0.533461  5.115019 -0.930757
   13975 points will be used for fitting atomic charges
 Fitting point charges to electrostatic potential
 Charges from ESP fit, RMS=   0.00400 RRMS=   0.31664:
 ESP charges:
               1
     1  C   -0.222239
     2  C    0.000492
     3  C   -0.408046
     4  C    0.494385
     5  C   -0.318044
     6  C   -0.002760
     7  H    0.105900
     8  H    0.091247
     9  H    0.138189
    10  H    0.093057
    11  N   -0.875341
    12  B    0.564573
    13  C   -0.348996
    14  H    0.058642
    15  H    0.070802
    16  H    0.055930
    17  C   -0.479927
    18  H    0.108984
    19  H    0.090704
    20  H    0.070116
    21  H    0.341352
    22  H    0.370979
 Sum of ESP charges =  -0.00000
 ESP charges with hydrogens summed into heavy atoms:
               1
     1  C   -0.116339
     2  C    0.091739
     3  C   -0.408046
     4  C    0.494385
     5  C   -0.179855
     6  C    0.090297
    11  N   -0.163010
    12  B    0.564573
    13  C   -0.163622
    17  C   -0.210122
 Charge=  -0.00000 Dipole=    -0.1065     1.7401     0.1509 Tot=     1.7499
 -----------------------------------------------------------------

              Electrostatic Properties (Atomic Units)

 -----------------------------------------------------------------
    Center     Electric         -------- Electric Field --------
               Potential          X             Y             Z
 -----------------------------------------------------------------
    1 Atom    -14.791291
    2 Atom    -14.780571
    3 Atom    -14.800025
    4 Atom    -14.727899
    5 Atom    -14.782873
    6 Atom    -14.774877
    7 Atom     -1.116131
    8 Atom     -1.117551
    9 Atom     -1.101961
   10 Atom     -1.106697
   11 Atom    -18.383835
   12 Atom    -11.472774
   13 Atom    -14.806824
   14 Atom     -1.127409
   15 Atom     -1.100495
   16 Atom     -1.123361
   17 Atom    -14.811483
   18 Atom     -1.111190
   19 Atom     -1.125522
   20 Atom     -1.130490
   21 Atom     -1.028787
   22 Atom     -1.026684
 -----------------------------------------------------------------
 Unable to Open any file for archive entry.
 1\1\GINC-IRENE4670\SP\RwB97XD\GenECP\C8H12B1N1\PENASFRA\10-Apr-2024\0\
 \# wb97xd/genecp scrf=(solvent=toluene,pcm) nosymm pop=(chelpg) scfcyc
 =300\\me_aniline_chelpg\\0,1\C,0,-0.692534,0.967658,0.885918\C,0,0.687
 371,1.075066,0.885933\C,0,1.380277,2.161344,0.315363\C,0,0.589234,3.20
 0062,-0.240794\C,0,-0.811695,3.097323,-0.230703\C,0,-1.441354,1.996182
 ,0.317192\H,0,-1.18031,0.104116,1.322278\H,0,1.265554,0.271747,1.33011
 3\H,0,-1.40334,3.898731,-0.662994\H,0,-2.524965,1.94269,0.307372\N,0,1
 .148947,4.324277,-0.826904\B,0,2.941982,2.074012,0.259822\C,0,3.823307
 ,2.869771,-0.784816\H,0,3.314452,3.13686,-1.7139\H,0,4.161373,3.808501
 ,-0.317235\H,0,4.740969,2.322915,-1.023595\C,0,3.721804,1.105057,1.235
 095\H,0,3.868398,0.147654,0.71329\H,0,4.727789,1.479424,1.450753\H,0,3
 .220223,0.882685,2.179927\H,0,2.076274,4.584159,-0.537856\H,0,0.533461
 ,5.115019,-0.930757\\Version=AS64L-G16RevC.02\HF=-391.6785626\RMSD=4.2
 24e-09\Dipole=-0.0188446,0.6771334,0.0389281\Quadrupole=-0.7368851,8.1
 071159,-7.3702308,1.1981127,0.6309471,-1.4960431\PG=C01 [X(C8H12B1N1)]
 \\@
 The archive entry for this job was punched.


 YOU CAN WIPE THE SLATE CLEAN, BUT YOU'LL STILL
 HAVE TO EAT A LITTLE CHALK DUST.
 Job cpu time:       0 days  0 hours 33 minutes  0.0 seconds.
 Elapsed time:       0 days  0 hours  0 minutes 20.3 seconds.
 File lengths (MBytes):  RWF=    101 Int=      0 D2E=      0 Chk=      7 Scr=      1
 Normal termination of Gaussian 16 at Wed Apr 10 14:59:59 2024.
