 Entering Gaussian System, Link 0=/ccc/products/gaussian-16-C.02/system/default/g16/g16
 Input=me_benzopyrrolidine_chelpg.gjf
 Output=me_benzopyrrolidine_chelpg.log
 Initial command:
 /ccc/products/gaussian-16-C.02/system/default/g16/l1.exe "/ccc/scratch/cont003/gen7343/penasfra/flp/b-n_flp/me_benzopyrrolidine/Reactant/Gau-1821018.inp" -scrdir="/ccc/scratch/cont003/gen7343/penasfra/flp/b-n_flp/me_benzopyrrolidine/Reactant/"
 Entering Link 1 = /ccc/products/gaussian-16-C.02/system/default/g16/l1.exe PID=   1821067.
  
 Copyright (c) 1988-2021, Gaussian, Inc.  All Rights Reserved.
  
 This is part of the Gaussian(R) 16 program.  It is based on
 the Gaussian(R) 09 system (copyright 2009, Gaussian, Inc.),
 the Gaussian(R) 03 system (copyright 2003, Gaussian, Inc.),
 the Gaussian(R) 98 system (copyright 1998, Gaussian, Inc.),
 the Gaussian(R) 94 system (copyright 1995, Gaussian, Inc.),
 the Gaussian 92(TM) system (copyright 1992, Gaussian, Inc.),
 the Gaussian 90(TM) system (copyright 1990, Gaussian, Inc.),
 the Gaussian 88(TM) system (copyright 1988, Gaussian, Inc.),
 the Gaussian 86(TM) system (copyright 1986, Carnegie Mellon
 University), and the Gaussian 82(TM) system (copyright 1983,
 Carnegie Mellon University). Gaussian is a federally registered
 trademark of Gaussian, Inc.
  
 This software contains proprietary and confidential information,
 including trade secrets, belonging to Gaussian, Inc.
  
 This software is provided under written license and may be
 used, copied, transmitted, or stored only in accord with that
 written license.
  
 The following legend is applicable only to US Government
 contracts under FAR:
  
                    RESTRICTED RIGHTS LEGEND
  
 Use, reproduction and disclosure by the US Government is
 subject to restrictions as set forth in subparagraphs (a)
 and (c) of the Commercial Computer Software - Restricted
 Rights clause in FAR 52.227-19.
  
 Gaussian, Inc.
 340 Quinnipiac St., Bldg. 40, Wallingford CT 06492
  
  
 ---------------------------------------------------------------
 Warning -- This program may not be used in any manner that
 competes with the business of Gaussian, Inc. or will provide
 assistance to any competitor of Gaussian, Inc.  The licensee
 of this program is prohibited from giving any competitor of
 Gaussian, Inc. access to this program.  By using this program,
 the user acknowledges that Gaussian, Inc. is engaged in the
 business of creating and licensing software in the field of
 computational chemistry and represents and warrants to the
 licensee that it is not a competitor of Gaussian, Inc. and that
 it will not use this program in any manner prohibited above.
 ---------------------------------------------------------------
  

 Cite this work as:
 Gaussian 16, Revision C.02,
 M. J. Frisch, G. W. Trucks, H. B. Schlegel, G. E. Scuseria, 
 M. A. Robb, J. R. Cheeseman, G. Scalmani, V. Barone, 
 G. A. Petersson, H. Nakatsuji, X. Li, M. Caricato, A. V. Marenich, 
 J. Bloino, B. G. Janesko, R. Gomperts, B. Mennucci, H. P. Hratchian, 
 J. V. Ortiz, A. F. Izmaylov, J. L. Sonnenberg, D. Williams-Young, 
 F. Ding, F. Lipparini, F. Egidi, J. Goings, B. Peng, A. Petrone, 
 T. Henderson, D. Ranasinghe, V. G. Zakrzewski, J. Gao, N. Rega, 
 G. Zheng, W. Liang, M. Hada, M. Ehara, K. Toyota, R. Fukuda, 
 J. Hasegawa, M. Ishida, T. Nakajima, Y. Honda, O. Kitao, H. Nakai, 
 T. Vreven, K. Throssell, J. A. Montgomery, Jr., J. E. Peralta, 
 F. Ogliaro, M. J. Bearpark, J. J. Heyd, E. N. Brothers, K. N. Kudin, 
 V. N. Staroverov, T. A. Keith, R. Kobayashi, J. Normand, 
 K. Raghavachari, A. P. Rendell, J. C. Burant, S. S. Iyengar, 
 J. Tomasi, M. Cossi, J. M. Millam, M. Klene, C. Adamo, R. Cammi, 
 J. W. Ochterski, R. L. Martin, K. Morokuma, O. Farkas, 
 J. B. Foresman, and D. J. Fox, Gaussian, Inc., Wallingford CT, 2019.
 
 ******************************************
 Gaussian 16:  AS64L-G16RevC.02  7-Dec-2021
                10-Apr-2024 
 ******************************************
 %nprocshared=128
 Will use up to  128 processors via shared memory.
 %mem=30GB
 %chk=me_benzopyrrolidine_chelpg.chk
 ----------------------------------------------------------------------
 # wb97xd/genecp scrf=(solvent=toluene,pcm) nosymm pop=(chelpg) scfcyc=
 300
 ----------------------------------------------------------------------
 1/38=1,172=1/1;
 2/12=2,15=1,17=6,18=5,40=1/2;
 3/5=7,11=2,16=1,17=8,25=1,30=1,70=2201,72=13,74=-58/1,2,3;
 4//1;
 5/5=2,7=300,38=5,53=13/2;
 6/7=2,8=2,9=2,10=2,15=8,20=3,28=1/1,2;
 99/5=1,9=1/99;
 --------------------------
 me_benzopyrrolidine_chelpg
 --------------------------
 Symbolic Z-matrix:
 Charge =  0 Multiplicity = 1
 C                    -0.63717   1.13917   0.58786 
 C                     0.71622   1.32103   0.84352 
 C                     1.45742   2.37828   0.29774 
 C                     0.75854   3.35679  -0.46209 
 C                    -0.60542   3.15286  -0.74359 
 C                    -1.28286   2.05576  -0.23171 
 H                    -1.17092   0.2939    1.00613 
 H                     1.23368   0.58616   1.4536 
 H                    -1.14874   3.85663  -1.36009 
 H                    -2.33504   1.9312   -0.46623 
 B                     3.0103    2.20216   0.35522 
 C                     3.86497   2.27542  -0.96875 
 H                     3.37148   2.76709  -1.80983 
 H                     4.85699   2.71449  -0.8152 
 H                     4.04572   1.23026  -1.26176 
 C                     3.74208   1.80942   1.69447 
 H                     4.57004   1.10899   1.54446 
 H                     4.20047   2.73682   2.07041 
 H                     3.09178   1.43939   2.49099 
 C                     0.65042   5.53587  -1.62283 
 C                     2.5422    5.08727  -0.20402 
 C                     1.61797   6.71286  -1.67861 
 H                    -0.25885   5.82258  -1.07342 
 H                     0.34788   5.1838   -2.61322 
 C                     2.3432    6.59682  -0.33777 
 H                     3.48487   4.79105  -0.67373 
 H                     2.56356   4.75291   0.83917 
 H                     2.32473   6.58527  -2.50411 
 H                     1.10199   7.66431  -1.81393 
 H                     3.28636   7.1439   -0.30282 
 H                     1.70127   6.96753   0.46701 
 N                     1.3916    4.50308  -0.90191 
 
                          Input orientation:                          
 ---------------------------------------------------------------------
 Center     Atomic      Atomic             Coordinates (Angstroms)
 Number     Number       Type             X           Y           Z
 ---------------------------------------------------------------------
      1          6           0       -0.637169    1.139169    0.587856
      2          6           0        0.716224    1.321028    0.843518
      3          6           0        1.457422    2.378284    0.297744
      4          6           0        0.758535    3.356792   -0.462094
      5          6           0       -0.605422    3.152863   -0.743587
      6          6           0       -1.282855    2.055757   -0.231711
      7          1           0       -1.170923    0.293902    1.006133
      8          1           0        1.233682    0.586156    1.453597
      9          1           0       -1.148740    3.856628   -1.360085
     10          1           0       -2.335035    1.931203   -0.466225
     11          5           0        3.010295    2.202156    0.355221
     12          6           0        3.864967    2.275421   -0.968747
     13          1           0        3.371481    2.767089   -1.809825
     14          1           0        4.856989    2.714489   -0.815199
     15          1           0        4.045718    1.230256   -1.261755
     16          6           0        3.742082    1.809419    1.694473
     17          1           0        4.570036    1.108993    1.544460
     18          1           0        4.200466    2.736823    2.070409
     19          1           0        3.091780    1.439394    2.490989
     20          6           0        0.650422    5.535873   -1.622826
     21          6           0        2.542200    5.087270   -0.204020
     22          6           0        1.617966    6.712859   -1.678608
     23          1           0       -0.258845    5.822581   -1.073423
     24          1           0        0.347882    5.183798   -2.613221
     25          6           0        2.343198    6.596820   -0.337771
     26          1           0        3.484866    4.791046   -0.673731
     27          1           0        2.563558    4.752913    0.839165
     28          1           0        2.324727    6.585271   -2.504111
     29          1           0        1.101992    7.664313   -1.813925
     30          1           0        3.286358    7.143902   -0.302820
     31          1           0        1.701267    6.967528    0.467009
     32          7           0        1.391595    4.503076   -0.901905
 ---------------------------------------------------------------------
                    Distance matrix (angstroms):
                    1          2          3          4          5
     1  C    0.000000
     2  C    1.389283   0.000000
     3  C    2.450894   1.401797   0.000000
     4  C    2.822806   2.418832   1.422419   0.000000
     5  C    2.414273   2.760665   2.437143   1.407553   0.000000
     6  C    1.388789   2.385846   2.809531   2.431675   1.387290
     7  H    1.083663   2.154705   3.428507   3.906379   3.399260
     8  H    2.134342   1.086276   2.144243   3.401773   3.846805
     9  H    3.382420   3.842294   3.424322   2.166546   1.081919
    10  H    2.149687   3.376081   3.894388   3.406244   2.135637
    11  B    3.806318   2.505510   1.563886   2.659250   3.896746
    12  C    4.897276   3.756295   2.722288   3.328060   4.561248
    13  H    4.946541   4.022650   2.873437   2.998602   4.135389
    14  H    5.885233   4.673223   3.592872   4.163479   5.480441
    15  H    5.035751   3.940297   3.232535   3.995896   5.059448
    16  C    4.566363   3.180954   2.737541   3.993332   5.162341
    17  H    5.294430   3.922773   3.585215   4.858642   6.016471
    18  H    5.305956   3.955968   3.285602   4.317965   5.584642
    19  H    4.197274   2.893344   2.891879   4.223878   5.202669
    20  C    5.086847   4.883861   3.782883   2.471312   2.833539
    21  C    5.130590   4.314638   2.960932   2.498523   3.733710
    22  C    6.425614   6.020473   4.766580   3.671745   4.300150
    23  H    4.983706   4.988928   4.085199   2.736586   2.712250
    24  H    5.251309   5.196702   4.192339   2.852005   2.920448
    25  C    6.286917   5.645925   4.357123   3.608933   4.551910
    26  H    5.649688   4.691316   3.297835   3.087840   4.406697
    27  H    4.833938   3.897499   2.674983   2.626887   3.886862
    28  H    6.927706   6.442527   5.128484   4.128664   4.844238
    29  H    7.167338   6.888257   5.703295   4.527709   4.941059
    30  H    7.228014   6.467267   5.139728   4.556036   5.591835
    31  H    6.281135   5.744130   4.598834   3.845698   4.619310
    32  N    4.201326   3.691620   2.440949   1.381364   2.415826
                    6          7          8          9         10
     6  C    0.000000
     7  H    2.156135   0.000000
     8  H    3.366445   2.463283   0.000000
     9  H    2.129402   4.276973   4.928360   0.000000
    10  H    1.085170   2.490733   4.269732   2.431778   0.000000
    11  B    4.335557   4.641950   2.640879   4.793446   5.414863
    12  C    5.204954   5.760795   3.955380   5.271681   6.229851
    13  H    4.965811   5.888948   4.469516   4.671377   5.921849
    14  H    6.202586   6.746274   4.775520   6.137602   7.242964
    15  H    5.489639   5.764843   3.961761   5.821503   6.468246
    16  C    5.387101   5.187314   2.801154   6.118948   6.450953
    17  H    6.189304   5.823468   3.378294   6.977842   7.238708
    18  H    5.985851   5.996029   3.715862   6.452616   7.056650
    19  H    5.189454   4.656993   2.292755   6.217379   6.199783
    20  C    4.217104   6.140601   5.856985   2.475052   4.821237
    21  C    4.880767   6.182890   4.971915   4.058818   5.815233
    22  C    5.674229   7.495915   6.891652   3.989257   6.321418
    23  H    3.993249   5.976850   6.002800   2.176938   4.452199
    24  H    4.256235   6.270373   6.201771   2.360425   4.731491
    25  C    5.812122   7.340429   6.369310   4.554932   6.608354
    26  H    5.514377   6.687497   5.222495   4.776455   6.487912
    27  H    4.818332   5.818677   4.416782   4.406947   5.801922
    28  H    6.220526   8.007665   7.269334   4.562813   6.893962
    29  H    6.296570   8.212297   7.797073   4.446373   6.818944
    30  H    6.839005   8.276667   7.092426   5.620861   7.668050
    31  H    5.789533   7.285425   6.474095   4.597664   6.521290
    32  N    3.686626   5.284340   4.573356   2.661038   4.548859
                   11         12         13         14         15
    11  B    0.000000
    12  C    1.577569   0.000000
    13  H    2.266501   1.092098   0.000000
    14  H    2.245584   1.095657   1.788514   0.000000
    15  H    2.152046   1.100407   1.765455   1.749434   0.000000
    16  C    1.575865   2.706474   3.651655   2.891474   3.027690
    17  H    2.245459   2.859001   3.929000   2.868440   2.857351
    18  H    2.155051   3.092236   3.967915   2.959435   3.660192
    19  H    2.269350   3.642325   4.509768   3.958877   3.877734
    20  C    4.538209   4.625113   3.886553   5.129101   5.495156
    21  C    2.975861   3.200159   2.941013   3.370738   4.272695
    22  C    5.140183   5.024318   4.319853   5.217634   6.010548
    23  H    5.082891   5.440508   4.801832   5.991550   6.297157
    24  H    4.978984   4.851066   3.953236   5.446321   5.579511
    25  C    4.498703   4.624760   4.229793   4.649686   5.705465
    26  H    2.826006   2.561226   2.323783   2.492955   3.652335
    27  H    2.634414   3.331693   3.407842   3.485960   4.361167
    28  H    5.278019   4.827472   4.019483   4.924198   5.760334
    29  H    6.179156   6.114615   5.397536   6.292711   7.097007
    30  H    4.993003   4.947763   4.629773   4.727485   6.038824
    31  H    4.943159   5.362729   5.061351   5.448943   6.434389
    32  N    3.081361   3.329337   2.785304   3.900707   4.229091
                   16         17         18         19         20
    16  C    0.000000
    17  H    1.094810   0.000000
    18  H    1.100692   1.750153   0.000000
    19  H    1.092817   1.786147   1.757667   0.000000
    20  C    5.869352   6.707633   5.837592   6.298003   0.000000
    21  C    3.973449   4.795413   3.667080   4.568601   2.406882
    22  C    6.319277   7.106771   6.044278   6.882376   1.524647
    23  H    6.306674   7.238046   6.268256   6.568413   1.100369
    24  H    6.439197   7.191448   6.539609   6.899456   1.093787
    25  C    5.385731   6.214326   4.914097   5.929697   2.375387
    26  H    3.816366   4.433450   3.501745   4.626396   3.080523
    27  H    3.283996   4.219188   2.874030   3.739913   3.214734
    28  H    6.515041   7.170911   6.265396   7.212451   2.163607
    29  H    7.318382   8.141149   6.997767   7.825673   2.184191
    30  H    5.714330   6.440528   5.088237   6.354891   3.358025
    31  H    5.681345   6.611593   5.168728   6.048991   2.742503
    32  N    4.418343   5.254235   4.454667   4.877346   1.461415
                   21         22         23         24         25
    21  C    0.000000
    22  C    2.381419   0.000000
    23  H    3.023640   2.163623   0.000000
    24  H    3.260153   2.196507   1.774018   0.000000
    25  C    1.528474   1.528813   2.812696   3.339998   0.000000
    26  H    1.094073   2.861548   3.903741   3.708982   2.162659
    27  H    1.095667   3.327869   3.573254   4.124785   2.198575
    28  H    2.753492   1.094187   3.050149   2.425685   2.166450
    29  H    3.362610   1.090782   2.406698   2.713026   2.204351
    30  H    2.189353   2.205022   3.861112   4.220735   1.090904
    31  H    2.166291   2.162283   2.743333   3.808039   1.094153
    32  N    1.467044   2.353222   2.120015   2.116913   2.368029
                   26         27         28         29         30
    26  H    0.000000
    27  H    1.771755   0.000000
    28  H    2.813442   3.819957   0.000000
    29  H    3.903049   4.201346   1.770810   0.000000
    30  H    2.390170   2.746525   2.466269   2.706607   0.000000
    31  H    3.036377   2.405528   3.059800   2.459126   1.770948
    32  N    2.125270   2.113585   2.788070   3.302888   3.304995
                   31         32
    31  H    0.000000
    32  N    2.836079   0.000000
 Symmetry turned off by external request.
 Stoichiometry    C12H18BN
 Framework group  C1[X(C12H18BN)]
 Deg. of freedom    90
 Full point group                 C1      NOp   1
 Rotational constants (GHZ):           0.8965601           0.5961212           0.4025351
 General basis read from cards:  (5D, 7F)
 ======================================================================================================
                                       Pseudopotential Parameters
 ======================================================================================================
  Center     Atomic      Valence      Angular      Power
  Number     Number     Electrons     Momentum     of R      Exponent        Coefficient   SO-Coeffient
 ======================================================================================================
    1          6
                                   No pseudopotential on this center.
    2          6
                                   No pseudopotential on this center.
    3          6
                                   No pseudopotential on this center.
    4          6
                                   No pseudopotential on this center.
    5          6
                                   No pseudopotential on this center.
    6          6
                                   No pseudopotential on this center.
    7          1
                                   No pseudopotential on this center.
    8          1
                                   No pseudopotential on this center.
    9          1
                                   No pseudopotential on this center.
   10          1
                                   No pseudopotential on this center.
   11          5
                                   No pseudopotential on this center.
   12          6
                                   No pseudopotential on this center.
   13          1
                                   No pseudopotential on this center.
   14          1
                                   No pseudopotential on this center.
   15          1
                                   No pseudopotential on this center.
   16          6
                                   No pseudopotential on this center.
   17          1
                                   No pseudopotential on this center.
   18          1
                                   No pseudopotential on this center.
   19          1
                                   No pseudopotential on this center.
   20          6
                                   No pseudopotential on this center.
   21          6
                                   No pseudopotential on this center.
   22          6
                                   No pseudopotential on this center.
   23          1
                                   No pseudopotential on this center.
   24          1
                                   No pseudopotential on this center.
   25          6
                                   No pseudopotential on this center.
   26          1
                                   No pseudopotential on this center.
   27          1
                                   No pseudopotential on this center.
   28          1
                                   No pseudopotential on this center.
   29          1
                                   No pseudopotential on this center.
   30          1
                                   No pseudopotential on this center.
   31          1
                                   No pseudopotential on this center.
   32          7
                                   No pseudopotential on this center.
 ======================================================================================================
   434 basis functions,   666 primitive gaussians,   448 cartesian basis functions
    51 alpha electrons       51 beta electrons
       nuclear repulsion energy       875.2194980817 Hartrees.
 NAtoms=   32 NActive=   32 NUniq=   32 SFac= 1.00D+00 NAtFMM=   60 NAOKFM=F Big=F
 Integral buffers will be    131072 words long.
 Raffenetti 2 integral format.
 Two-electron integral symmetry is turned off.
 Nuclear repulsion after empirical dispersion term =      875.1944245919 Hartrees.
 ------------------------------------------------------------------------------
 Polarizable Continuum Model (PCM)
 =================================
 Model                : PCM.
 Atomic radii         : UFF (Universal Force Field).
 Polarization charges : Total charges.
 Charge compensation  : None.
 Solution method      : On-the-fly selection.
 Cavity type          : Scaled VdW (van der Waals Surface) (Alpha=1.100).
 Cavity algorithm     : GePol (No added spheres)
                        Default sphere list used, NSphG=   32.
                        Lebedev-Laikov grids with approx.  5.0 points / Ang**2.
                        Smoothing algorithm: York/Karplus (Gamma=1.0000).
                        Polarization charges: spherical gaussians, with
                                              point-specific exponents (IZeta= 3).
                        Self-potential: point-specific (ISelfS= 7).
                        Self-field    : sphere-specific E.n sum rule (ISelfD= 2).
 Solvent              : Toluene, Eps=   2.374100 Eps(inf)=   2.238315
 ------------------------------------------------------------------------------
 One-electron integrals computed using PRISM.
   1 Symmetry operations used in ECPInt.
 ECPInt:  NShTT=   15225 NPrTT=   47892 LenC2=   14578 LenP2D=   33969.
 LDataN:  DoStor=T MaxTD1= 4 Len=   56
 Number of processors reduced to  99 by ecpmxn.
 NBasis=   434 RedAO= T EigKep=  2.07D-06  NBF=   434
 NBsUse=   432 1.00D-06 EigRej=  7.75D-07 NBFU=   432
 ExpMin= 3.15D-02 ExpMax= 6.29D+03 ExpMxC= 9.49D+02 IAcc=3 IRadAn=         5 AccDes= 0.00D+00
 Harris functional with IExCor= 4639 and IRadAn=       5 diagonalized for initial guess.
 HarFok:  IExCor= 4639 AccDes= 0.00D+00 IRadAn=         5 IDoV= 1 UseB2=F ITyADJ=14
 ICtDFT=  3500011 ScaDFX=  1.000000  1.000000  1.000000  1.000000
 FoFCou: FMM=F IPFlag=           0 FMFlag=      100000 FMFlg1=           0
         NFxFlg=           0 DoJE=T BraDBF=F KetDBF=T FulRan=T
         wScrn=  0.000000 ICntrl=       500 IOpCl=  0 I1Cent=   200000004 NGrid=           0
         NMat0=    1 NMatS0=      1 NMatT0=    0 NMatD0=    1 NMtDS0=    0 NMtDT0=    0
 Symmetry not used in FoFCou.
 Requested convergence on RMS density matrix=1.00D-08 within 300 cycles.
 Requested convergence on MAX density matrix=1.00D-06.
 Requested convergence on             energy=1.00D-06.
 No special actions if energy rises.
 Inv3:  Mode=1 IEnd=    14388300.
 Iteration    1 A*A^-1 deviation from unit magnitude is 4.00D-15 for   2185.
 Iteration    1 A*A^-1 deviation from orthogonality  is 3.09D-15 for   2189   1958.
 Iteration    1 A^-1*A deviation from unit magnitude is 4.22D-15 for   2185.
 Iteration    1 A^-1*A deviation from orthogonality  is 1.23D-14 for   1955   1898.
 Error on total polarization charges =  0.01022
 SCF Done:  E(RwB97XD) =  -547.701728049     A.U. after   16 cycles
            NFock= 16  Conv=0.58D-08     -V/T= 2.0047

 **********************************************************************

            Population analysis using the SCF Density.

 **********************************************************************

 Alpha  occ. eigenvalues --  -14.44592 -10.32772 -10.31440 -10.31393 -10.28665
 Alpha  occ. eigenvalues --  -10.28612 -10.28449 -10.28393 -10.27552 -10.27069
 Alpha  occ. eigenvalues --  -10.26112 -10.24649 -10.24464  -6.83919  -1.05967
 Alpha  occ. eigenvalues --   -0.95030  -0.89749  -0.85215  -0.83238  -0.81910
 Alpha  occ. eigenvalues --   -0.80073  -0.76863  -0.72315  -0.70734  -0.67184
 Alpha  occ. eigenvalues --   -0.66189  -0.62764  -0.59452  -0.57244  -0.54783
 Alpha  occ. eigenvalues --   -0.53685  -0.52072  -0.51240  -0.50785  -0.49631
 Alpha  occ. eigenvalues --   -0.49369  -0.48807  -0.48058  -0.46256  -0.45881
 Alpha  occ. eigenvalues --   -0.44756  -0.44508  -0.43402  -0.43293  -0.42308
 Alpha  occ. eigenvalues --   -0.41720  -0.39085  -0.37787  -0.36541  -0.32259
 Alpha  occ. eigenvalues --   -0.26575
 Alpha virt. eigenvalues --    0.03289   0.03906   0.04851   0.04914   0.05537
 Alpha virt. eigenvalues --    0.06238   0.06405   0.06751   0.06999   0.07272
 Alpha virt. eigenvalues --    0.08099   0.08403   0.08701   0.09336   0.09503
 Alpha virt. eigenvalues --    0.09963   0.10408   0.10949   0.11257   0.11636
 Alpha virt. eigenvalues --    0.12702   0.12850   0.13501   0.14572   0.14632
 Alpha virt. eigenvalues --    0.15284   0.15734   0.15940   0.16292   0.16614
 Alpha virt. eigenvalues --    0.17030   0.17510   0.18007   0.18186   0.18405
 Alpha virt. eigenvalues --    0.18475   0.18929   0.19242   0.19560   0.19976
 Alpha virt. eigenvalues --    0.20052   0.20329   0.20407   0.20616   0.21133
 Alpha virt. eigenvalues --    0.21309   0.21809   0.22039   0.22322   0.22591
 Alpha virt. eigenvalues --    0.23097   0.23239   0.23550   0.24111   0.24231
 Alpha virt. eigenvalues --    0.24334   0.24935   0.25312   0.25529   0.26109
 Alpha virt. eigenvalues --    0.26159   0.26381   0.26824   0.27623   0.28193
 Alpha virt. eigenvalues --    0.28240   0.28620   0.29552   0.29806   0.30487
 Alpha virt. eigenvalues --    0.30619   0.30912   0.31417   0.31744   0.32073
 Alpha virt. eigenvalues --    0.33080   0.33662   0.34282   0.34323   0.34865
 Alpha virt. eigenvalues --    0.35751   0.36327   0.36458   0.37123   0.37418
 Alpha virt. eigenvalues --    0.38042   0.38251   0.39022   0.39334   0.39641
 Alpha virt. eigenvalues --    0.39968   0.40417   0.40660   0.41322   0.42179
 Alpha virt. eigenvalues --    0.42417   0.43045   0.43321   0.43556   0.44263
 Alpha virt. eigenvalues --    0.45492   0.45709   0.48048   0.49180   0.49505
 Alpha virt. eigenvalues --    0.51198   0.51550   0.54499   0.56256   0.56740
 Alpha virt. eigenvalues --    0.57665   0.58430   0.59777   0.60456   0.61288
 Alpha virt. eigenvalues --    0.62388   0.62425   0.63106   0.64535   0.65310
 Alpha virt. eigenvalues --    0.66015   0.66979   0.67391   0.68122   0.68491
 Alpha virt. eigenvalues --    0.68768   0.69895   0.70181   0.70978   0.71725
 Alpha virt. eigenvalues --    0.72572   0.73396   0.73694   0.74652   0.75600
 Alpha virt. eigenvalues --    0.75642   0.77032   0.77346   0.77564   0.78598
 Alpha virt. eigenvalues --    0.78853   0.79428   0.79668   0.80776   0.81339
 Alpha virt. eigenvalues --    0.81779   0.81828   0.82464   0.83232   0.83856
 Alpha virt. eigenvalues --    0.84193   0.85121   0.85472   0.86155   0.86666
 Alpha virt. eigenvalues --    0.88384   0.89327   0.89750   0.90302   0.91168
 Alpha virt. eigenvalues --    0.92079   0.94475   0.95145   0.95412   0.98283
 Alpha virt. eigenvalues --    0.98597   0.99999   1.01152   1.02844   1.03737
 Alpha virt. eigenvalues --    1.05537   1.06204   1.07835   1.08190   1.09503
 Alpha virt. eigenvalues --    1.10693   1.11054   1.14431   1.15012   1.17127
 Alpha virt. eigenvalues --    1.17812   1.18859   1.20154   1.20868   1.22849
 Alpha virt. eigenvalues --    1.24872   1.27729   1.28414   1.30696   1.32268
 Alpha virt. eigenvalues --    1.34597   1.37017   1.38881   1.40544   1.42467
 Alpha virt. eigenvalues --    1.42855   1.43233   1.47668   1.48746   1.49948
 Alpha virt. eigenvalues --    1.52679   1.54922   1.56309   1.58246   1.58486
 Alpha virt. eigenvalues --    1.61356   1.61826   1.62557   1.63648   1.64354
 Alpha virt. eigenvalues --    1.64991   1.66226   1.66768   1.67967   1.69305
 Alpha virt. eigenvalues --    1.70123   1.70539   1.70868   1.72349   1.72579
 Alpha virt. eigenvalues --    1.73461   1.75665   1.76130   1.77300   1.77525
 Alpha virt. eigenvalues --    1.78290   1.79144   1.79325   1.80379   1.81426
 Alpha virt. eigenvalues --    1.83105   1.83204   1.84499   1.85009   1.85085
 Alpha virt. eigenvalues --    1.87805   1.88445   1.89291   1.91343   1.92147
 Alpha virt. eigenvalues --    1.92600   1.94509   1.96163   1.96527   1.97596
 Alpha virt. eigenvalues --    2.01163   2.02460   2.02706   2.03871   2.04361
 Alpha virt. eigenvalues --    2.05011   2.05204   2.07557   2.08289   2.09564
 Alpha virt. eigenvalues --    2.10375   2.11171   2.15078   2.16644   2.17939
 Alpha virt. eigenvalues --    2.19796   2.21913   2.22604   2.26115   2.27332
 Alpha virt. eigenvalues --    2.29310   2.29776   2.31169   2.32665   2.33694
 Alpha virt. eigenvalues --    2.35074   2.36707   2.37784   2.38555   2.40215
 Alpha virt. eigenvalues --    2.43626   2.44046   2.46423   2.48160   2.49365
 Alpha virt. eigenvalues --    2.52233   2.54831   2.56575   2.57768   2.58321
 Alpha virt. eigenvalues --    2.58989   2.59242   2.60167   2.61021   2.62327
 Alpha virt. eigenvalues --    2.63796   2.65843   2.67170   2.68035   2.69134
 Alpha virt. eigenvalues --    2.70211   2.72250   2.72660   2.74875   2.75678
 Alpha virt. eigenvalues --    2.77465   2.78917   2.80506   2.81381   2.81952
 Alpha virt. eigenvalues --    2.82575   2.83443   2.84882   2.85748   2.85787
 Alpha virt. eigenvalues --    2.87694   2.88136   2.88944   2.90025   2.90986
 Alpha virt. eigenvalues --    2.91455   2.95003   2.96191   2.96242   2.98420
 Alpha virt. eigenvalues --    2.99837   3.00648   3.01660   3.04656   3.06453
 Alpha virt. eigenvalues --    3.08889   3.09751   3.11264   3.15129   3.17618
 Alpha virt. eigenvalues --    3.21202   3.24364   3.25302   3.28642   3.34440
 Alpha virt. eigenvalues --    3.35418   3.44212   3.48283   3.48815   3.55813
 Alpha virt. eigenvalues --    3.60847   3.66526   3.68712   3.71257   3.73167
 Alpha virt. eigenvalues --    3.77927   3.79389   3.82770   3.84278   3.89300
 Alpha virt. eigenvalues --    3.94167   3.95640   3.98001   4.04584   4.06877
 Alpha virt. eigenvalues --    4.08336   4.09479   4.16851   4.23616   4.24803
 Alpha virt. eigenvalues --    4.29866   4.31841   4.37200   4.40867   4.95331
 Alpha virt. eigenvalues --    4.98743   5.22381  14.83185  23.78523  24.00498
 Alpha virt. eigenvalues --   24.02478  24.08067  24.08994  24.10101  24.11527
 Alpha virt. eigenvalues --   24.14341  24.17954  24.20301  24.24413  24.33740
 Alpha virt. eigenvalues --   35.77514
          Condensed to atoms (all electrons):
               1          2          3          4          5          6
     1  C    6.903255   0.072321  -1.058597   0.845756  -0.802202   0.311261
     2  C    0.072321   9.459407  -2.271902  -2.465363   1.883146  -0.706334
     3  C   -1.058597  -2.271902   8.539117   0.536175  -0.810433   1.082575
     4  C    0.845756  -2.465363   0.536175  10.793112  -1.539442  -2.289156
     5  C   -0.802202   1.883146  -0.810433  -1.539442   7.990480  -0.606117
     6  C    0.311261  -0.706334   1.082575  -2.289156  -0.606117   8.792683
     7  H    0.453289  -0.077479   0.021157   0.033496  -0.062107  -0.033656
     8  H   -0.088779   0.484174  -0.123870  -0.031614   0.059732  -0.000968
     9  H   -0.016948   0.022768  -0.001109   0.027290   0.423161  -0.120816
    10  H   -0.053063  -0.017369   0.012191   0.053521  -0.000514   0.330341
    11  B    0.058749  -0.019465   0.403851  -0.085115   0.023027   0.063659
    12  C   -0.000501   0.037715  -0.042834   0.005066  -0.000889  -0.033372
    13  H    0.004333  -0.007732   0.013350  -0.054280   0.020015   0.011292
    14  H   -0.007269   0.026126  -0.012368   0.005424  -0.000563   0.004366
    15  H    0.011185   0.002817  -0.015840   0.020168   0.000658  -0.009438
    16  C   -0.106476  -0.012083  -0.152643  -0.069805   0.008768   0.068017
    17  H   -0.008890  -0.038278   0.060644   0.006530  -0.000369   0.000406
    18  H    0.001295   0.022787  -0.053946  -0.002236  -0.000548  -0.001764
    19  H    0.004671  -0.023799   0.021149   0.020642  -0.009412  -0.002105
    20  C    0.005101   0.039349  -0.126592  -0.276643   0.075218  -0.296369
    21  C   -0.049851  -0.292606   0.055998   0.088360  -0.132488  -0.005557
    22  C   -0.019866  -0.006678  -0.122450   0.692972  -0.256677  -0.158235
    23  H    0.005095  -0.006095  -0.001665   0.057251  -0.020704  -0.025651
    24  H   -0.001652   0.007186   0.024569  -0.150944   0.075081   0.033310
    25  C    0.005320  -0.048181  -0.049183  -0.032241  -0.095712   0.025444
    26  H    0.001686   0.032823   0.015151  -0.010167   0.002910  -0.006073
    27  H   -0.001103  -0.088233   0.012649   0.055719  -0.036705   0.008555
    28  H    0.001352   0.002519   0.006737  -0.001849  -0.003449  -0.002007
    29  H    0.000004  -0.000373  -0.000606   0.008182  -0.007675  -0.003496
    30  H   -0.000033  -0.000768   0.000879  -0.001994  -0.002192  -0.000444
    31  H    0.003109   0.001679   0.005407   0.003897  -0.005901  -0.005947
    32  N    0.065082   0.049077  -0.138562  -0.246241  -0.147712   0.098168
               7          8          9         10         11         12
     1  C    0.453289  -0.088779  -0.016948  -0.053063   0.058749  -0.000501
     2  C   -0.077479   0.484174   0.022768  -0.017369  -0.019465   0.037715
     3  C    0.021157  -0.123870  -0.001109   0.012191   0.403851  -0.042834
     4  C    0.033496  -0.031614   0.027290   0.053521  -0.085115   0.005066
     5  C   -0.062107   0.059732   0.423161  -0.000514   0.023027  -0.000889
     6  C   -0.033656  -0.000968  -0.120816   0.330341   0.063659  -0.033372
     7  H    0.482165  -0.014028   0.001135  -0.009940   0.002654  -0.001166
     8  H   -0.014028   0.534625   0.000154   0.002276  -0.048709   0.012561
     9  H    0.001135   0.000154   0.501165  -0.008765  -0.002459   0.001560
    10  H   -0.009940   0.002276  -0.008765   0.472018  -0.003340   0.000707
    11  B    0.002654  -0.048709  -0.002459  -0.003340   5.388895   0.228602
    12  C   -0.001166   0.012561   0.001560   0.000707   0.228602   5.395393
    13  H    0.000215   0.000280   0.000330  -0.000222  -0.099473   0.398173
    14  H   -0.000409   0.001599  -0.000219   0.000213  -0.238664   0.426396
    15  H   -0.000067   0.001156  -0.000200   0.000049  -0.072612   0.397316
    16  C   -0.004031   0.017058  -0.000570   0.001054   0.031070  -0.068860
    17  H   -0.000283  -0.001041   0.000025   0.000080  -0.138256   0.012502
    18  H   -0.000345   0.001890   0.000057   0.000037  -0.151796   0.010820
    19  H   -0.000175   0.008194  -0.000020  -0.000024  -0.128284   0.000476
    20  C   -0.000823   0.000175   0.027285   0.002715  -0.051231   0.014785
    21  C   -0.000823  -0.001338  -0.000557   0.000578   0.016436  -0.055449
    22  C   -0.001030   0.002126  -0.006822   0.002042  -0.000316   0.014111
    23  H   -0.000023  -0.000328  -0.006963  -0.000384  -0.000746   0.000403
    24  H   -0.000133  -0.000067  -0.006152   0.000629  -0.000270  -0.001017
    25  C   -0.000063  -0.002839   0.000801   0.000022  -0.215617  -0.073382
    26  H   -0.000096   0.000646   0.000085   0.000156  -0.008458   0.027965
    27  H    0.000014  -0.000864  -0.000415  -0.000010  -0.085546  -0.014665
    28  H    0.000035  -0.000120   0.000194  -0.000068   0.003281   0.001918
    29  H   -0.000007   0.000023   0.000819  -0.000020  -0.003331   0.000400
    30  H    0.000001   0.000032  -0.000105  -0.000015   0.002922  -0.000838
    31  H    0.000075  -0.000175   0.000055  -0.000084   0.011628   0.001578
    32  N    0.002839  -0.005200  -0.024935  -0.005890   0.032936   0.014717
              13         14         15         16         17         18
     1  C    0.004333  -0.007269   0.011185  -0.106476  -0.008890   0.001295
     2  C   -0.007732   0.026126   0.002817  -0.012083  -0.038278   0.022787
     3  C    0.013350  -0.012368  -0.015840  -0.152643   0.060644  -0.053946
     4  C   -0.054280   0.005424   0.020168  -0.069805   0.006530  -0.002236
     5  C    0.020015  -0.000563   0.000658   0.008768  -0.000369  -0.000548
     6  C    0.011292   0.004366  -0.009438   0.068017   0.000406  -0.001764
     7  H    0.000215  -0.000409  -0.000067  -0.004031  -0.000283  -0.000345
     8  H    0.000280   0.001599   0.001156   0.017058  -0.001041   0.001890
     9  H    0.000330  -0.000219  -0.000200  -0.000570   0.000025   0.000057
    10  H   -0.000222   0.000213   0.000049   0.001054   0.000080   0.000037
    11  B   -0.099473  -0.238664  -0.072612   0.031070  -0.138256  -0.151796
    12  C    0.398173   0.426396   0.397316  -0.068860   0.012502   0.010820
    13  H    0.563267  -0.021914  -0.016374  -0.001598   0.000806  -0.004748
    14  H   -0.021914   0.565419  -0.006536   0.059523   0.003401   0.015657
    15  H   -0.016374  -0.006536   0.520254  -0.021466   0.001766   0.002269
    16  C   -0.001598   0.059523  -0.021466   5.497467   0.432077   0.440117
    17  H    0.000806   0.003401   0.001766   0.432077   0.546003  -0.008907
    18  H   -0.004748   0.015657   0.002269   0.440117  -0.008907   0.548689
    19  H   -0.004905  -0.001082  -0.002765   0.415021  -0.012394  -0.021249
    20  C    0.001461   0.000246  -0.001150   0.000206   0.000240  -0.000109
    21  C   -0.022182   0.014401  -0.002601   0.062727  -0.000406   0.019990
    22  C   -0.011246   0.006150   0.003300   0.001696   0.000551   0.001285
    23  H   -0.000529  -0.000108   0.000082   0.000268  -0.000010   0.000117
    24  H    0.001093   0.000243  -0.000045   0.000017  -0.000005  -0.000141
    25  C    0.002786   0.021428  -0.009712   0.057158  -0.000819   0.005802
    26  H   -0.012006  -0.010853   0.008182  -0.009876   0.002460  -0.003802
    27  H    0.004078   0.006033  -0.004831   0.030394  -0.001563  -0.001348
    28  H   -0.002097  -0.001098   0.000278  -0.000841  -0.000098   0.000013
    29  H    0.000111   0.000308  -0.000053   0.000359   0.000025   0.000069
    30  H    0.001104   0.000172  -0.000012  -0.000879  -0.000129  -0.000259
    31  H   -0.000650  -0.001203   0.000297  -0.003155  -0.000180  -0.000097
    32  N    0.033472  -0.022397  -0.003614  -0.028253  -0.000786  -0.004155
              19         20         21         22         23         24
     1  C    0.004671   0.005101  -0.049851  -0.019866   0.005095  -0.001652
     2  C   -0.023799   0.039349  -0.292606  -0.006678  -0.006095   0.007186
     3  C    0.021149  -0.126592   0.055998  -0.122450  -0.001665   0.024569
     4  C    0.020642  -0.276643   0.088360   0.692972   0.057251  -0.150944
     5  C   -0.009412   0.075218  -0.132488  -0.256677  -0.020704   0.075081
     6  C   -0.002105  -0.296369  -0.005557  -0.158235  -0.025651   0.033310
     7  H   -0.000175  -0.000823  -0.000823  -0.001030  -0.000023  -0.000133
     8  H    0.008194   0.000175  -0.001338   0.002126  -0.000328  -0.000067
     9  H   -0.000020   0.027285  -0.000557  -0.006822  -0.006963  -0.006152
    10  H   -0.000024   0.002715   0.000578   0.002042  -0.000384   0.000629
    11  B   -0.128284  -0.051231   0.016436  -0.000316  -0.000746  -0.000270
    12  C    0.000476   0.014785  -0.055449   0.014111   0.000403  -0.001017
    13  H   -0.004905   0.001461  -0.022182  -0.011246  -0.000529   0.001093
    14  H   -0.001082   0.000246   0.014401   0.006150  -0.000108   0.000243
    15  H   -0.002765  -0.001150  -0.002601   0.003300   0.000082  -0.000045
    16  C    0.415021   0.000206   0.062727   0.001696   0.000268   0.000017
    17  H   -0.012394   0.000240  -0.000406   0.000551  -0.000010  -0.000005
    18  H   -0.021249  -0.000109   0.019990   0.001285   0.000117  -0.000141
    19  H    0.573856   0.000854   0.000833   0.000084   0.000105  -0.000126
    20  C    0.000854   6.009592   0.033025  -0.463825   0.423594   0.456259
    21  C    0.000833   0.033025   6.083003   0.031823   0.001203   0.007344
    22  C    0.000084  -0.463825   0.031823   6.874623  -0.030649  -0.071682
    23  H    0.000105   0.423594   0.001203  -0.030649   0.568316  -0.044207
    24  H   -0.000126   0.456259   0.007344  -0.071682  -0.044207   0.505390
    25  C    0.003491   0.127354  -0.482622  -0.327624  -0.021479   0.026808
    26  H   -0.001510   0.018618   0.383443  -0.020415   0.004147  -0.001868
    27  H    0.007911  -0.007159   0.393565   0.010266  -0.002771  -0.000696
    28  H    0.000013  -0.124302  -0.049726   0.494642   0.002800  -0.008507
    29  H    0.000041  -0.050749   0.010136   0.414408   0.000051  -0.003988
    30  H   -0.000142  -0.008464  -0.045432  -0.021668  -0.003145   0.001236
    31  H   -0.000053  -0.032084  -0.085558  -0.042653   0.006173  -0.004891
    32  N   -0.000691   0.267388   0.158390  -0.324982  -0.061555  -0.044022
              25         26         27         28         29         30
     1  C    0.005320   0.001686  -0.001103   0.001352   0.000004  -0.000033
     2  C   -0.048181   0.032823  -0.088233   0.002519  -0.000373  -0.000768
     3  C   -0.049183   0.015151   0.012649   0.006737  -0.000606   0.000879
     4  C   -0.032241  -0.010167   0.055719  -0.001849   0.008182  -0.001994
     5  C   -0.095712   0.002910  -0.036705  -0.003449  -0.007675  -0.002192
     6  C    0.025444  -0.006073   0.008555  -0.002007  -0.003496  -0.000444
     7  H   -0.000063  -0.000096   0.000014   0.000035  -0.000007   0.000001
     8  H   -0.002839   0.000646  -0.000864  -0.000120   0.000023   0.000032
     9  H    0.000801   0.000085  -0.000415   0.000194   0.000819  -0.000105
    10  H    0.000022   0.000156  -0.000010  -0.000068  -0.000020  -0.000015
    11  B   -0.215617  -0.008458  -0.085546   0.003281  -0.003331   0.002922
    12  C   -0.073382   0.027965  -0.014665   0.001918   0.000400  -0.000838
    13  H    0.002786  -0.012006   0.004078  -0.002097   0.000111   0.001104
    14  H    0.021428  -0.010853   0.006033  -0.001098   0.000308   0.000172
    15  H   -0.009712   0.008182  -0.004831   0.000278  -0.000053  -0.000012
    16  C    0.057158  -0.009876   0.030394  -0.000841   0.000359  -0.000879
    17  H   -0.000819   0.002460  -0.001563  -0.000098   0.000025  -0.000129
    18  H    0.005802  -0.003802  -0.001348   0.000013   0.000069  -0.000259
    19  H    0.003491  -0.001510   0.007911   0.000013   0.000041  -0.000142
    20  C    0.127354   0.018618  -0.007159  -0.124302  -0.050749  -0.008464
    21  C   -0.482622   0.383443   0.393565  -0.049726   0.010136  -0.045432
    22  C   -0.327624  -0.020415   0.010266   0.494642   0.414408  -0.021668
    23  H   -0.021479   0.004147  -0.002771   0.002800   0.000051  -0.003145
    24  H    0.026808  -0.001868  -0.000696  -0.008507  -0.003988   0.001236
    25  C    7.019973  -0.059112   0.090258  -0.039005  -0.020658   0.426483
    26  H   -0.059112   0.578066  -0.043671   0.002890  -0.001805  -0.010368
    27  H    0.090258  -0.043671   0.564046  -0.002029   0.002125   0.002199
    28  H   -0.039005   0.002890  -0.002029   0.503159  -0.008580  -0.003427
    29  H   -0.020658  -0.001805   0.002125  -0.008580   0.469014  -0.006044
    30  H    0.426483  -0.010368   0.002199  -0.003427  -0.006044   0.468907
    31  H    0.439275   0.004089  -0.012223   0.011103  -0.004808  -0.009818
    32  N   -0.215038  -0.053804  -0.064566   0.040442   0.004474   0.005385
              31         32
     1  C    0.003109   0.065082
     2  C    0.001679   0.049077
     3  C    0.005407  -0.138562
     4  C    0.003897  -0.246241
     5  C   -0.005901  -0.147712
     6  C   -0.005947   0.098168
     7  H    0.000075   0.002839
     8  H   -0.000175  -0.005200
     9  H    0.000055  -0.024935
    10  H   -0.000084  -0.005890
    11  B    0.011628   0.032936
    12  C    0.001578   0.014717
    13  H   -0.000650   0.033472
    14  H   -0.001203  -0.022397
    15  H    0.000297  -0.003614
    16  C   -0.003155  -0.028253
    17  H   -0.000180  -0.000786
    18  H   -0.000097  -0.004155
    19  H   -0.000053  -0.000691
    20  C   -0.032084   0.267388
    21  C   -0.085558   0.158390
    22  C   -0.042653  -0.324982
    23  H    0.006173  -0.061555
    24  H   -0.004891  -0.044022
    25  C    0.439275  -0.215038
    26  H    0.004089  -0.053804
    27  H   -0.012223  -0.064566
    28  H    0.011103   0.040442
    29  H   -0.004808   0.004474
    30  H   -0.009818   0.005385
    31  H    0.505725   0.037626
    32  N    0.037626   7.263868
 Mulliken charges:
               1
     1  C   -0.537634
     2  C   -0.061152
     3  C    0.171000
     4  C    0.003527
     5  C   -0.020385
     6  C   -0.522572
     7  H    0.209609
     8  H    0.193240
     9  H    0.190172
    10  H    0.221079
    11  B    0.085976
    12  C   -0.710189
    13  H    0.203791
    14  H    0.167576
    15  H    0.197541
    16  C   -0.642460
    17  H    0.144896
    18  H    0.184556
    19  H    0.151394
    20  C   -0.063966
    21  C   -0.134060
    22  C   -0.663257
    23  H    0.157408
    24  H    0.201245
    25  C   -0.559114
    26  H    0.170566
    27  H    0.180585
    28  H    0.175828
    29  H    0.201641
    30  H    0.206858
    31  H    0.177763
    32  N    0.318538
 Sum of Mulliken charges =  -0.00000
 Mulliken charges with hydrogens summed into heavy atoms:
               1
     1  C   -0.328025
     2  C    0.132087
     3  C    0.171000
     4  C    0.003527
     5  C    0.169787
     6  C   -0.301492
    11  B    0.085976
    12  C   -0.141281
    16  C   -0.161615
    20  C    0.294688
    21  C    0.217091
    22  C   -0.285787
    25  C   -0.174493
    32  N    0.318538
 Electronic spatial extent (au):  <R**2>=           8273.7531
 Charge=              0.0000 electrons
 Dipole moment (field-independent basis, Debye):
    X=              0.5804    Y=              2.5888    Z=             -0.5739  Tot=              2.7144
 Quadrupole moment (field-independent basis, Debye-Ang):
   XX=            -82.2593   YY=            -62.0988   ZZ=            -88.0338
   XY=              6.3526   XZ=              1.2487   YZ=             -5.9801
 Traceless Quadrupole moment (field-independent basis, Debye-Ang):
   XX=             -4.7953   YY=             15.3651   ZZ=            -10.5699
   XY=              6.3526   XZ=              1.2487   YZ=             -5.9801
 Octapole moment (field-independent basis, Debye-Ang**2):
  XXX=           -383.1840  YYY=           -725.9825  ZZZ=             56.6029  XYY=            -82.1273
  XXY=           -277.1784  XXZ=             19.2159  XZZ=           -132.9413  YZZ=           -296.9201
  YYZ=            -12.9250  XYZ=              3.6445
 Hexadecapole moment (field-independent basis, Debye-Ang**3):
 XXXX=          -2648.7854 YYYY=          -7106.1337 ZZZZ=           -684.1621 XXXY=          -1358.2356
 XXXZ=             20.5258 YYYX=          -1122.0126 YYYZ=            340.9207 ZZZX=              9.4082
 ZZZY=            515.0864 XXYY=          -1674.0138 XXZZ=           -583.9553 YYZZ=          -1440.6227
 XXYZ=            176.8440 YYXZ=              2.9557 ZZXY=           -476.0327
 N-N= 8.751944245919D+02 E-N=-3.020615127380D+03  KE= 5.451386742513D+02
 Breneman (CHELPG) radii used.
 Generate Potential Derived Charges using the Breneman model, NDens= 1.
 Grid spacing= 0.300 Box extension= 2.800
 NStep X,Y,Z=   44     45     37   Total possible points=       73260
 Number of Points to Fit=   18008

 **********************************************************************

            Electrostatic Properties Using The SCF Density.

 **********************************************************************

       Atomic Center    1 is at  -0.637169  1.139169  0.587856
       Atomic Center    2 is at   0.716224  1.321028  0.843518
       Atomic Center    3 is at   1.457422  2.378284  0.297744
       Atomic Center    4 is at   0.758535  3.356792 -0.462094
       Atomic Center    5 is at  -0.605422  3.152863 -0.743587
       Atomic Center    6 is at  -1.282855  2.055757 -0.231711
       Atomic Center    7 is at  -1.170923  0.293902  1.006133
       Atomic Center    8 is at   1.233682  0.586156  1.453597
       Atomic Center    9 is at  -1.148740  3.856628 -1.360085
       Atomic Center   10 is at  -2.335035  1.931203 -0.466225
       Atomic Center   11 is at   3.010295  2.202156  0.355221
       Atomic Center   12 is at   3.864967  2.275421 -0.968747
       Atomic Center   13 is at   3.371481  2.767089 -1.809825
       Atomic Center   14 is at   4.856989  2.714489 -0.815199
       Atomic Center   15 is at   4.045718  1.230256 -1.261755
       Atomic Center   16 is at   3.742082  1.809419  1.694473
       Atomic Center   17 is at   4.570036  1.108993  1.544460
       Atomic Center   18 is at   4.200466  2.736823  2.070409
       Atomic Center   19 is at   3.091780  1.439394  2.490989
       Atomic Center   20 is at   0.650422  5.535873 -1.622826
       Atomic Center   21 is at   2.542200  5.087270 -0.204020
       Atomic Center   22 is at   1.617966  6.712859 -1.678608
       Atomic Center   23 is at  -0.258845  5.822581 -1.073423
       Atomic Center   24 is at   0.347882  5.183798 -2.613221
       Atomic Center   25 is at   2.343198  6.596820 -0.337771
       Atomic Center   26 is at   3.484866  4.791046 -0.673731
       Atomic Center   27 is at   2.563558  4.752913  0.839165
       Atomic Center   28 is at   2.324727  6.585271 -2.504111
       Atomic Center   29 is at   1.101992  7.664313 -1.813925
       Atomic Center   30 is at   3.286358  7.143902 -0.302820
       Atomic Center   31 is at   1.701267  6.967528  0.467009
       Atomic Center   32 is at   1.391595  4.503076 -0.901905
   18008 points will be used for fitting atomic charges
 Fitting point charges to electrostatic potential
 Charges from ESP fit, RMS=   0.00345 RRMS=   0.29765:
 ESP charges:
               1
     1  C   -0.229735
     2  C   -0.022830
     3  C   -0.349708
     4  C    0.397881
     5  C   -0.303838
     6  C   -0.020427
     7  H    0.108218
     8  H    0.082678
     9  H    0.119264
    10  H    0.092548
    11  B    0.582559
    12  C   -0.480488
    13  H    0.066938
    14  H    0.096924
    15  H    0.091541
    16  C   -0.400361
    17  H    0.076651
    18  H    0.071977
    19  H    0.058682
    20  C    0.179930
    21  C    0.197650
    22  C   -0.073998
    23  H    0.003622
    24  H    0.001567
    25  C   -0.005353
    26  H    0.017689
    27  H   -0.037613
    28  H    0.044467
    29  H    0.023167
    30  H    0.002929
    31  H    0.028963
    32  N   -0.421494
 Sum of ESP charges =   0.00000
 ESP charges with hydrogens summed into heavy atoms:
               1
     1  C   -0.121516
     2  C    0.059847
     3  C   -0.349708
     4  C    0.397881
     5  C   -0.184573
     6  C    0.072121
    11  B    0.582559
    12  C   -0.225086
    16  C   -0.193052
    20  C    0.185119
    21  C    0.177726
    22  C   -0.006363
    25  C    0.026539
    32  N   -0.421494
 Charge=   0.00000 Dipole=     0.5143     2.5140    -0.5492 Tot=     2.6242
 -----------------------------------------------------------------

              Electrostatic Properties (Atomic Units)

 -----------------------------------------------------------------
    Center     Electric         -------- Electric Field --------
               Potential          X             Y             Z
 -----------------------------------------------------------------
    1 Atom    -14.798584
    2 Atom    -14.786100
    3 Atom    -14.806226
    4 Atom    -14.737730
    5 Atom    -14.791126
    6 Atom    -14.785156
    7 Atom     -1.122775
    8 Atom     -1.121319
    9 Atom     -1.112860
   10 Atom     -1.116273
   11 Atom    -11.476121
   12 Atom    -14.814357
   13 Atom     -1.136323
   14 Atom     -1.124005
   15 Atom     -1.115727
   16 Atom    -14.812116
   17 Atom     -1.126819
   18 Atom     -1.110262
   19 Atom     -1.131813
   20 Atom    -14.738625
   21 Atom    -14.738733
   22 Atom    -14.763738
   23 Atom     -1.117684
   24 Atom     -1.114787
   25 Atom    -14.764408
   26 Atom     -1.123336
   27 Atom     -1.109867
   28 Atom     -1.115135
   29 Atom     -1.109451
   30 Atom     -1.110176
   31 Atom     -1.115438
   32 Atom    -18.377164
 -----------------------------------------------------------------
 Unable to Open any file for archive entry.
 1\1\GINC-IRENE4024\SP\RwB97XD\GenECP\C12H18B1N1\PENASFRA\10-Apr-2024\0
 \\# wb97xd/genecp scrf=(solvent=toluene,pcm) nosymm pop=(chelpg) scfcy
 c=300\\me_benzopyrrolidine_chelpg\\0,1\C,0,-0.637169,1.139169,0.587856
 \C,0,0.716224,1.321028,0.843518\C,0,1.457422,2.378284,0.297744\C,0,0.7
 58535,3.356792,-0.462094\C,0,-0.605422,3.152863,-0.743587\C,0,-1.28285
 5,2.055757,-0.231711\H,0,-1.170923,0.293902,1.006133\H,0,1.233682,0.58
 6156,1.453597\H,0,-1.14874,3.856628,-1.360085\H,0,-2.335035,1.931203,-
 0.466225\B,0,3.010295,2.202156,0.355221\C,0,3.864967,2.275421,-0.96874
 7\H,0,3.371481,2.767089,-1.809825\H,0,4.856989,2.714489,-0.815199\H,0,
 4.045718,1.230256,-1.261755\C,0,3.742082,1.809419,1.694473\H,0,4.57003
 6,1.108993,1.54446\H,0,4.200466,2.736823,2.070409\H,0,3.09178,1.439394
 ,2.490989\C,0,0.650422,5.535873,-1.622826\C,0,2.5422,5.08727,-0.20402\
 C,0,1.617966,6.712859,-1.678608\H,0,-0.258845,5.822581,-1.073423\H,0,0
 .347882,5.183798,-2.613221\C,0,2.343198,6.59682,-0.337771\H,0,3.484866
 ,4.791046,-0.673731\H,0,2.563558,4.752913,0.839165\H,0,2.324727,6.5852
 71,-2.504111\H,0,1.101992,7.664313,-1.813925\H,0,3.286358,7.143902,-0.
 30282\H,0,1.701267,6.967528,0.467009\N,0,1.391595,4.503076,-0.901905\\
 Version=AS64L-G16RevC.02\HF=-547.701728\RMSD=5.833e-09\Dipole=0.228338
 8,1.0185111,-0.2258058\Quadrupole=-3.5651817,11.4236075,-7.8584258,4.7
 230214,0.9284142,-4.446073\PG=C01 [X(C12H18B1N1)]\\@
 The archive entry for this job was punched.


 Everywhere is walking distance if you have the time.
                                    -- Steven Wright
 Job cpu time:       0 days  1 hours  5 minutes 33.3 seconds.
 Elapsed time:       0 days  0 hours  0 minutes 40.1 seconds.
 File lengths (MBytes):  RWF=    182 Int=      0 D2E=      0 Chk=     13 Scr=      1
 Normal termination of Gaussian 16 at Wed Apr 10 14:32:21 2024.
