 Entering Gaussian System, Link 0=/ccc/products/gaussian-16-C.02/system/default/g16/g16
 Input=me_biphenylene_chelpg.gjf
 Output=me_biphenylene_chelpg.log
 Initial command:
 /ccc/products/gaussian-16-C.02/system/default/g16/l1.exe "/ccc/scratch/cont003/gen7343/penasfra/flp/b-n_flp/me_biphenylene/reactant/Gau-3337742.inp" -scrdir="/ccc/scratch/cont003/gen7343/penasfra/flp/b-n_flp/me_biphenylene/reactant/"
 Entering Link 1 = /ccc/products/gaussian-16-C.02/system/default/g16/l1.exe PID=   3337791.
  
 Copyright (c) 1988-2021, Gaussian, Inc.  All Rights Reserved.
  
 This is part of the Gaussian(R) 16 program.  It is based on
 the Gaussian(R) 09 system (copyright 2009, Gaussian, Inc.),
 the Gaussian(R) 03 system (copyright 2003, Gaussian, Inc.),
 the Gaussian(R) 98 system (copyright 1998, Gaussian, Inc.),
 the Gaussian(R) 94 system (copyright 1995, Gaussian, Inc.),
 the Gaussian 92(TM) system (copyright 1992, Gaussian, Inc.),
 the Gaussian 90(TM) system (copyright 1990, Gaussian, Inc.),
 the Gaussian 88(TM) system (copyright 1988, Gaussian, Inc.),
 the Gaussian 86(TM) system (copyright 1986, Carnegie Mellon
 University), and the Gaussian 82(TM) system (copyright 1983,
 Carnegie Mellon University). Gaussian is a federally registered
 trademark of Gaussian, Inc.
  
 This software contains proprietary and confidential information,
 including trade secrets, belonging to Gaussian, Inc.
  
 This software is provided under written license and may be
 used, copied, transmitted, or stored only in accord with that
 written license.
  
 The following legend is applicable only to US Government
 contracts under FAR:
  
                    RESTRICTED RIGHTS LEGEND
  
 Use, reproduction and disclosure by the US Government is
 subject to restrictions as set forth in subparagraphs (a)
 and (c) of the Commercial Computer Software - Restricted
 Rights clause in FAR 52.227-19.
  
 Gaussian, Inc.
 340 Quinnipiac St., Bldg. 40, Wallingford CT 06492
  
  
 ---------------------------------------------------------------
 Warning -- This program may not be used in any manner that
 competes with the business of Gaussian, Inc. or will provide
 assistance to any competitor of Gaussian, Inc.  The licensee
 of this program is prohibited from giving any competitor of
 Gaussian, Inc. access to this program.  By using this program,
 the user acknowledges that Gaussian, Inc. is engaged in the
 business of creating and licensing software in the field of
 computational chemistry and represents and warrants to the
 licensee that it is not a competitor of Gaussian, Inc. and that
 it will not use this program in any manner prohibited above.
 ---------------------------------------------------------------
  

 Cite this work as:
 Gaussian 16, Revision C.02,
 M. J. Frisch, G. W. Trucks, H. B. Schlegel, G. E. Scuseria, 
 M. A. Robb, J. R. Cheeseman, G. Scalmani, V. Barone, 
 G. A. Petersson, H. Nakatsuji, X. Li, M. Caricato, A. V. Marenich, 
 J. Bloino, B. G. Janesko, R. Gomperts, B. Mennucci, H. P. Hratchian, 
 J. V. Ortiz, A. F. Izmaylov, J. L. Sonnenberg, D. Williams-Young, 
 F. Ding, F. Lipparini, F. Egidi, J. Goings, B. Peng, A. Petrone, 
 T. Henderson, D. Ranasinghe, V. G. Zakrzewski, J. Gao, N. Rega, 
 G. Zheng, W. Liang, M. Hada, M. Ehara, K. Toyota, R. Fukuda, 
 J. Hasegawa, M. Ishida, T. Nakajima, Y. Honda, O. Kitao, H. Nakai, 
 T. Vreven, K. Throssell, J. A. Montgomery, Jr., J. E. Peralta, 
 F. Ogliaro, M. J. Bearpark, J. J. Heyd, E. N. Brothers, K. N. Kudin, 
 V. N. Staroverov, T. A. Keith, R. Kobayashi, J. Normand, 
 K. Raghavachari, A. P. Rendell, J. C. Burant, S. S. Iyengar, 
 J. Tomasi, M. Cossi, J. M. Millam, M. Klene, C. Adamo, R. Cammi, 
 J. W. Ochterski, R. L. Martin, K. Morokuma, O. Farkas, 
 J. B. Foresman, and D. J. Fox, Gaussian, Inc., Wallingford CT, 2019.
 
 ******************************************
 Gaussian 16:  AS64L-G16RevC.02  7-Dec-2021
                10-Apr-2024 
 ******************************************
 %nprocshared=128
 Will use up to  128 processors via shared memory.
 %mem=30GB
 %chk=me_biphenylene_chelpg.chk
 ----------------------------------------------------------------------
 # wb97xd/genecp scrf=(solvent=toluene,pcm) nosymm pop=(chelpg) scfcyc=
 300
 ----------------------------------------------------------------------
 1/38=1,172=1/1;
 2/12=2,15=1,17=6,18=5,40=1/2;
 3/5=7,11=2,16=1,17=8,25=1,30=1,70=2201,72=13,74=-58/1,2,3;
 4//1;
 5/5=2,7=300,38=5,53=13/2;
 6/7=2,8=2,9=2,10=2,15=8,20=3,28=1/1,2;
 99/5=1,9=1/99;
 ---------------------
 me_biphenylene_chelpg
 ---------------------
 Symbolic Z-matrix:
 Charge =  0 Multiplicity = 1
 C                     1.89464   2.4778   -0.17775 
 C                     1.85442   2.55225  -1.59296 
 C                     1.55514   4.02491  -1.50888 
 C                     1.54125   3.9465   -0.09935 
 C                     1.37061   5.18883  -2.2025 
 C                     1.25819   5.03972   0.69972 
 C                     1.1378    6.32459  -1.3983 
 H                     1.39824   5.25609  -3.28274 
 C                     1.07431   6.25646  -0.01774 
 H                     0.98138   7.28716  -1.87338 
 H                     0.85851   7.16641   0.52761 
 C                     2.08182   1.47222  -2.39322 
 H                     2.06362   1.51706  -3.47582 
 C                     2.34919   0.25617  -1.71479 
 H                     2.52878  -0.64326  -2.29361 
 C                     2.39344   0.19058  -0.33712 
 C                     2.19611   1.32452   0.51466 
 H                     2.61586  -0.76781   0.1218 
 B                     2.43577   1.21068   2.06133 
 N                     1.16794   4.95769   2.08986 
 C                     3.22941   2.34411   2.80335 
 H                     3.06652   3.34775   2.40074 
 H                     3.07658   2.35482   3.88678 
 H                     4.29383   2.11532   2.63754 
 C                     1.94694  -0.05314   2.85848 
 H                     2.62961  -0.33951   3.66472 
 H                     1.01203   0.25126   3.35452 
 H                     1.70693  -0.93067   2.25329 
 C                     1.05101   6.18917   2.84331 
 H                     0.0727    6.68025   2.71727 
 H                     1.17962   5.96022   3.90302 
 H                     1.83675   6.88899   2.55425 
 C                     0.33092   3.89102   2.61598 
 H                     0.62519   3.66382   3.64327 
 H                    -0.73326   4.17159   2.60632 
 H                     0.44142   2.98502   2.02146 
 
                          Input orientation:                          
 ---------------------------------------------------------------------
 Center     Atomic      Atomic             Coordinates (Angstroms)
 Number     Number       Type             X           Y           Z
 ---------------------------------------------------------------------
      1          6           0        1.894637    2.477796   -0.177752
      2          6           0        1.854418    2.552250   -1.592959
      3          6           0        1.555138    4.024907   -1.508883
      4          6           0        1.541245    3.946495   -0.099345
      5          6           0        1.370612    5.188826   -2.202502
      6          6           0        1.258188    5.039724    0.699716
      7          6           0        1.137798    6.324591   -1.398300
      8          1           0        1.398240    5.256092   -3.282736
      9          6           0        1.074310    6.256463   -0.017735
     10          1           0        0.981381    7.287163   -1.873384
     11          1           0        0.858510    7.166412    0.527612
     12          6           0        2.081817    1.472220   -2.393224
     13          1           0        2.063617    1.517064   -3.475824
     14          6           0        2.349186    0.256165   -1.714791
     15          1           0        2.528782   -0.643258   -2.293608
     16          6           0        2.393439    0.190584   -0.337123
     17          6           0        2.196105    1.324523    0.514657
     18          1           0        2.615864   -0.767807    0.121803
     19          5           0        2.435766    1.210676    2.061333
     20          7           0        1.167939    4.957687    2.089863
     21          6           0        3.229409    2.344112    2.803351
     22          1           0        3.066525    3.347752    2.400736
     23          1           0        3.076583    2.354824    3.886783
     24          1           0        4.293826    2.115320    2.637544
     25          6           0        1.946943   -0.053137    2.858484
     26          1           0        2.629611   -0.339508    3.664720
     27          1           0        1.012029    0.251261    3.354524
     28          1           0        1.706933   -0.930670    2.253291
     29          6           0        1.051010    6.189170    2.843306
     30          1           0        0.072701    6.680254    2.717274
     31          1           0        1.179619    5.960221    3.903020
     32          1           0        1.836753    6.888991    2.554253
     33          6           0        0.330919    3.891016    2.615981
     34          1           0        0.625187    3.663815    3.643269
     35          1           0       -0.733264    4.171588    2.606322
     36          1           0        0.441415    2.985015    2.021461
 ---------------------------------------------------------------------
                    Distance matrix (angstroms):
                    1          2          3          4          5
     1  C    0.000000
     2  C    1.417735   0.000000
     3  C    2.068991   1.505110   0.000000
     4  C    1.512650   2.067094   1.411786   0.000000
     5  C    3.424018   2.749026   1.367430   2.448626   0.000000
     6  C    2.781815   3.435022   2.448661   1.383391   2.908219
     7  C    4.106139   3.844736   2.339861   2.739597   1.410994
     8  H    4.195982   3.220901   2.164945   3.445210   1.082679
     9  C    3.869996   4.100133   2.726639   2.358101   2.449663
    10  H    5.180658   4.822886   3.332322   3.823706   2.159360
    11  H    4.853269   5.174857   3.808104   3.350682   3.409783
    12  C    2.440192   1.363305   2.752392   3.417036   3.788845
    13  H    3.439308   2.158832   3.227489   4.192328   3.947587
    14  C    2.739480   2.351945   3.856984   4.108646   5.052387
    15  H    3.823606   3.340202   4.832757   5.182263   5.946668
    16  C    2.346389   2.728577   4.096072   3.858710   5.432148
    17  C    1.378532   2.462947   3.434767   2.771385   4.795543
    18  H    3.338239   3.813527   5.172464   4.840285   6.514179
    19  B    2.629052   3.935942   4.630534   3.599084   5.927944
    20  N    3.438027   4.452029   3.737777   2.440184   4.303359
    21  C    3.269016   4.611015   4.921749   3.720641   6.050297
    22  H    2.962895   4.248721   4.245933   2.989210   5.239797
    23  H    4.234686   5.617850   5.849546   4.558497   6.929740
    24  H    3.716637   4.902935   5.323513   4.291907   6.435656
    25  C    3.953111   5.158677   5.988142   4.991032   7.309166
    26  H    4.820994   6.050320   6.853377   5.807112   8.159157
    27  H    4.267719   5.521029   6.179652   5.085670   7.442356
    28  H    4.190805   5.190965   6.223724   5.417480   7.577297
    29  C    4.859300   5.792504   4.886689   3.732173   5.153932
    30  H    5.418605   6.228406   5.206620   4.190871   5.302181
    31  H    5.412138   6.501954   5.759787   4.494974   6.157023
    32  H    5.189012   6.000583   4.979092   3.973310   5.072925
    33  C    3.499621   4.672100   4.304781   2.973376   5.097357
    34  H    4.197421   5.492237   5.247844   3.863448   6.087229
    35  H    4.186390   5.191562   4.710967   3.541849   5.346574
    36  H    2.684337   3.904855   3.845138   2.575245   4.854076
                    6          7          8          9         10
     6  C    0.000000
     7  C    2.463138   0.000000
     8  H    3.990784   2.181884   0.000000
     9  C    1.424430   1.383702   3.430146   0.000000
    10  H    3.427601   1.084765   2.507049   2.124714   0.000000
    11  H    2.170752   2.120330   4.296438   1.082580   2.407168
    12  C    4.792883   5.042475   3.946669   5.435715   5.940939
    13  H    5.522045   5.318417   3.802675   5.949707   6.085482
    14  C    5.468323   6.196243   5.325600   6.364659   7.164564
    15  H    6.547571   7.161517   6.087596   7.409537   8.090897
    16  C    5.087041   6.350494   5.943604   6.215867   7.396989
    17  C    3.836229   5.457114   5.523949   5.085853   6.536924
    18  H    5.992052   7.402533   7.025728   7.192790   8.457828
    19  B    4.231111   6.309192   6.782398   5.624594   7.383829
    20  N    1.395487   3.746547   5.385806   2.477409   4.600934
    21  C    3.946811   6.154098   6.990941   5.282941   7.166536
    22  H    3.004384   5.197522   6.223085   4.275339   6.175345
    23  H    4.546718   6.888399   7.914303   5.871724   7.867488
    24  H    4.639226   6.630725   7.300588   5.879188   7.620284
    25  C    5.574217   7.710405   8.136558   6.988932   8.786517
    26  H    6.293504   8.501170   9.005230   7.712734   9.568352
    27  H    5.480691   7.713008   8.321701   6.887558   8.765608
    28  H    6.185513   8.142287   8.307762   7.563905   9.224351
    29  C    2.441132   4.244655   6.206416   2.861927   4.843305
    30  H    2.857842   4.266014   6.307568   2.943313   4.718917
    31  H    3.333863   5.313992   7.223481   3.933341   5.930170
    32  H    2.682132   4.053364   6.076931   2.756181   4.527049
    33  C    2.418973   4.763170   6.147965   3.617241   5.666685
    34  H    3.310335   5.723628   7.148601   4.508490   6.609764
    35  H    2.890448   4.916634   6.356136   3.807848   5.719666
    36  H    2.576035   4.830371   5.848744   3.906565   5.828367
                   11         12         13         14         15
    11  H    0.000000
    12  C    6.515488   0.000000
    13  H    7.028152   1.083681   0.000000
    14  C    7.416333   1.417938   2.184640   0.000000
    15  H    8.469949   2.164474   2.506193   1.084549   0.000000
    16  C    7.194856   2.442796   3.423416   1.379938   2.131066
    17  C    5.993079   2.913872   3.997320   2.476946   3.445169
    18  H    8.136634   3.410028   4.297503   2.119602   2.420187
    19  B    6.349081   4.476244   5.558100   3.895857   4.734051
    20  N    2.723020   5.751671   6.604317   6.162390   7.241360
    21  C    5.835643   5.392732   6.439807   5.054495   5.949307
    22  H    4.792295   5.241118   6.236281   5.197119   6.184997
    23  H    6.273377   6.419271   7.479032   6.025870   6.890995
    24  H    6.462719   5.533099   6.534907   5.116728   5.919577
    25  C    7.664172   5.470406   6.527067   4.601338   5.218317
    26  H    8.325688   6.346741   7.399634   5.419650   5.966917
    27  H    7.472236   5.972587   7.025792   5.242706   5.916257
    28  H    8.322291   5.244475   6.240303   4.191270   4.629507
    29  C    2.520813   7.122740   7.923721   7.593554   8.674893
    30  H    2.376650   7.568180   8.305224   8.129853   9.207339
    31  H    3.598804   7.784523   8.658547   8.090979   9.155565
    32  H    2.267420   7.340231   8.079041   7.904537   8.984177
    33  C    3.920186   5.831668   6.763725   6.003426   7.035219
    34  H    4.693607   6.585143   7.573579   6.579746   7.577669
    35  H    3.977908   6.340878   7.201496   6.595760   7.604801
    36  H    4.459780   4.946606   5.916634   5.004577   6.011762
                   16         17         18         19         20
    16  C    0.000000
    17  C    1.431883   0.000000
    18  H    1.085633   2.169879   0.000000
    19  B    2.606716   1.569269   2.776438   0.000000
    20  N    5.487931   4.091244   6.225032   3.955792   0.000000
    21  C    3.898603   2.710240   4.153454   1.570076   3.404335
    22  H    4.232804   2.899721   4.725934   2.253918   2.508617
    23  H    4.794998   3.634281   4.913060   2.247663   3.694149
    24  H    4.020538   3.087465   4.178149   2.145411   4.260302
    25  C    3.235840   2.730120   2.906481   1.572139   5.128936
    26  H    4.043702   3.588847   3.568738   2.238637   5.716374
    27  H    3.942110   3.258646   3.749836   2.149383   4.875871
    28  H    2.904952   2.889296   2.322912   2.270112   5.915232
    29  C    6.921003   5.513496   7.632488   5.226321   1.448413
    30  H    7.538633   6.168000   8.287205   5.994215   2.135516
    31  H    7.262292   5.831290   7.850271   5.246703   2.071895
    32  H    7.317008   5.937372   8.071579   5.731060   2.095926
    33  C    5.164108   3.805439   5.757302   3.452859   1.454369
    34  H    5.570778   4.210497   6.000233   3.434910   2.093264
    35  H    5.855641   4.589340   6.464295   4.371128   2.121145
    36  H    4.145137   2.847214   4.735040   2.669701   2.103319
                   21         22         23         24         25
    21  C    0.000000
    22  H    1.093583   0.000000
    23  H    1.094210   1.787272   0.000000
    24  H    1.101282   1.755345   1.760580   0.000000
    25  C    2.719294   3.609577   2.851624   3.202949   0.000000
    26  H    2.881585   3.922300   2.740168   3.138612   1.094559
    27  H    3.098482   3.836525   2.995106   3.841740   1.101262
    28  H    3.653039   4.491673   3.916466   4.014688   1.092670
    29  C    4.419444   3.511670   4.460269   5.210993   6.306292
    30  H    5.364172   4.490963   5.394479   6.217948   6.990800
    31  H    4.299669   3.555596   4.074018   5.107150   6.151448
    32  H    4.759986   3.751837   4.885845   5.369551   6.949665
    33  C    3.290785   2.797321   3.393154   4.342602   4.269272
    34  H    3.037935   2.757520   2.789641   4.107095   4.022270
    35  H    4.368211   3.893503   4.410799   5.431468   5.009531
    36  H    2.965640   2.677056   3.289480   3.997124   3.492505
                   26         27         28         29         30
    26  H    0.000000
    27  H    1.749800   0.000000
    28  H    1.786880   1.758569   0.000000
    29  C    6.766856   5.960002   7.174293   0.000000
    30  H    7.530770   6.528428   7.798215   1.101878   0.000000
    31  H    6.468837   5.737696   7.105212   1.091765   1.774742
    32  H    7.356151   6.736473   7.826527   1.091189   1.783824
    33  C    4.927593   3.775867   5.027287   2.419033   2.802996
    34  H    4.477139   3.446527   4.920519   2.683036   3.203375
    35  H    5.725305   4.356009   5.666765   2.703781   2.637289
    36  H    4.305921   3.094522   4.121634   3.363576   3.778213
                   31         32         33         34         35
    31  H    0.000000
    32  H    1.764543   0.000000
    33  C    2.580382   3.355473   0.000000
    34  H    2.376625   3.613255   1.092490   0.000000
    35  H    2.922286   3.740585   1.100590   1.782830   0.000000
    36  H    3.596812   4.179936   1.089266   1.767711   1.769149
                   36
    36  H    0.000000
 Symmetry turned off by external request.
 Stoichiometry    C16H18BN
 Framework group  C1[X(C16H18BN)]
 Deg. of freedom   102
 Full point group                 C1      NOp   1
 Rotational constants (GHZ):           0.5579274           0.4084771           0.2500679
 General basis read from cards:  (5D, 7F)
 ======================================================================================================
                                       Pseudopotential Parameters
 ======================================================================================================
  Center     Atomic      Valence      Angular      Power
  Number     Number     Electrons     Momentum     of R      Exponent        Coefficient   SO-Coeffient
 ======================================================================================================
    1          6
                                   No pseudopotential on this center.
    2          6
                                   No pseudopotential on this center.
    3          6
                                   No pseudopotential on this center.
    4          6
                                   No pseudopotential on this center.
    5          6
                                   No pseudopotential on this center.
    6          6
                                   No pseudopotential on this center.
    7          6
                                   No pseudopotential on this center.
    8          1
                                   No pseudopotential on this center.
    9          6
                                   No pseudopotential on this center.
   10          1
                                   No pseudopotential on this center.
   11          1
                                   No pseudopotential on this center.
   12          6
                                   No pseudopotential on this center.
   13          1
                                   No pseudopotential on this center.
   14          6
                                   No pseudopotential on this center.
   15          1
                                   No pseudopotential on this center.
   16          6
                                   No pseudopotential on this center.
   17          6
                                   No pseudopotential on this center.
   18          1
                                   No pseudopotential on this center.
   19          5
                                   No pseudopotential on this center.
   20          7
                                   No pseudopotential on this center.
   21          6
                                   No pseudopotential on this center.
   22          1
                                   No pseudopotential on this center.
   23          1
                                   No pseudopotential on this center.
   24          1
                                   No pseudopotential on this center.
   25          6
                                   No pseudopotential on this center.
   26          1
                                   No pseudopotential on this center.
   27          1
                                   No pseudopotential on this center.
   28          1
                                   No pseudopotential on this center.
   29          6
                                   No pseudopotential on this center.
   30          1
                                   No pseudopotential on this center.
   31          1
                                   No pseudopotential on this center.
   32          1
                                   No pseudopotential on this center.
   33          6
                                   No pseudopotential on this center.
   34          1
                                   No pseudopotential on this center.
   35          1
                                   No pseudopotential on this center.
   36          1
                                   No pseudopotential on this center.
 ======================================================================================================
   522 basis functions,   810 primitive gaussians,   540 cartesian basis functions
    63 alpha electrons       63 beta electrons
       nuclear repulsion energy      1236.4640030068 Hartrees.
 NAtoms=   36 NActive=   36 NUniq=   36 SFac= 1.00D+00 NAtFMM=   60 NAOKFM=F Big=F
 Integral buffers will be    131072 words long.
 Raffenetti 2 integral format.
 Two-electron integral symmetry is turned off.
 Nuclear repulsion after empirical dispersion term =     1236.4347697169 Hartrees.
 ------------------------------------------------------------------------------
 Polarizable Continuum Model (PCM)
 =================================
 Model                : PCM.
 Atomic radii         : UFF (Universal Force Field).
 Polarization charges : Total charges.
 Charge compensation  : None.
 Solution method      : On-the-fly selection.
 Cavity type          : Scaled VdW (van der Waals Surface) (Alpha=1.100).
 Cavity algorithm     : GePol (No added spheres)
                        Default sphere list used, NSphG=   36.
                        Lebedev-Laikov grids with approx.  5.0 points / Ang**2.
                        Smoothing algorithm: York/Karplus (Gamma=1.0000).
                        Polarization charges: spherical gaussians, with
                                              point-specific exponents (IZeta= 3).
                        Self-potential: point-specific (ISelfS= 7).
                        Self-field    : sphere-specific E.n sum rule (ISelfD= 2).
 Solvent              : Toluene, Eps=   2.374100 Eps(inf)=   2.238315
 ------------------------------------------------------------------------------
 One-electron integrals computed using PRISM.
   1 Symmetry operations used in ECPInt.
 ECPInt:  NShTT=   19701 NPrTT=   65358 LenC2=   18331 LenP2D=   43031.
 LDataN:  DoStor=T MaxTD1= 4 Len=   56
 Number of processors reduced to  86 by ecpmxn.
 NBasis=   522 RedAO= T EigKep=  1.13D-06  NBF=   522
 NBsUse=   515 1.00D-06 EigRej=  9.75D-07 NBFU=   515
 ExpMin= 3.15D-02 ExpMax= 6.29D+03 ExpMxC= 9.49D+02 IAcc=3 IRadAn=         5 AccDes= 0.00D+00
 Harris functional with IExCor= 4639 and IRadAn=       5 diagonalized for initial guess.
 HarFok:  IExCor= 4639 AccDes= 0.00D+00 IRadAn=         5 IDoV= 1 UseB2=F ITyADJ=14
 ICtDFT=  3500011 ScaDFX=  1.000000  1.000000  1.000000  1.000000
 FoFCou: FMM=F IPFlag=           0 FMFlag=      100000 FMFlg1=           0
         NFxFlg=           0 DoJE=T BraDBF=F KetDBF=T FulRan=T
         wScrn=  0.000000 ICntrl=       500 IOpCl=  0 I1Cent=   200000004 NGrid=           0
         NMat0=    1 NMatS0=      1 NMatT0=    0 NMatD0=    1 NMtDS0=    0 NMtDT0=    0
 Symmetry not used in FoFCou.
 Requested convergence on RMS density matrix=1.00D-08 within 300 cycles.
 Requested convergence on MAX density matrix=1.00D-06.
 Requested convergence on             energy=1.00D-06.
 No special actions if energy rises.
 Inv3:  Mode=1 IEnd=    19354800.
 Iteration    1 A*A^-1 deviation from unit magnitude is 5.22D-15 for   2523.
 Iteration    1 A*A^-1 deviation from orthogonality  is 2.66D-15 for   2536    371.
 Iteration    1 A^-1*A deviation from unit magnitude is 5.22D-15 for   2523.
 Iteration    1 A^-1*A deviation from orthogonality  is 1.89D-15 for   2283   1257.
 Error on total polarization charges =  0.01115
 SCF Done:  E(RwB97XD) =  -700.035838799     A.U. after   16 cycles
            NFock= 16  Conv=0.93D-08     -V/T= 2.0045

 **********************************************************************

            Population analysis using the SCF Density.

 **********************************************************************

 Alpha  occ. eigenvalues --  -14.45019 -10.33518 -10.31049 -10.30994 -10.30589
 Alpha  occ. eigenvalues --  -10.30294 -10.29959 -10.29539 -10.29466 -10.29424
 Alpha  occ. eigenvalues --  -10.29035 -10.28958 -10.28871 -10.28763 -10.27511
 Alpha  occ. eigenvalues --  -10.24986 -10.24372  -6.84344  -1.05641  -1.00724
 Alpha  occ. eigenvalues --   -0.94564  -0.90188  -0.86145  -0.84861  -0.82352
 Alpha  occ. eigenvalues --   -0.80542  -0.80062  -0.77117  -0.76457  -0.72446
 Alpha  occ. eigenvalues --   -0.71243  -0.66615  -0.64845  -0.62460  -0.58336
 Alpha  occ. eigenvalues --   -0.57512  -0.56285  -0.55935  -0.55319  -0.53640
 Alpha  occ. eigenvalues --   -0.53416  -0.51058  -0.50451  -0.50323  -0.49224
 Alpha  occ. eigenvalues --   -0.48973  -0.48349  -0.47720  -0.46831  -0.46293
 Alpha  occ. eigenvalues --   -0.46061  -0.45658  -0.44465  -0.44182  -0.42690
 Alpha  occ. eigenvalues --   -0.41631  -0.39234  -0.37927  -0.37695  -0.37046
 Alpha  occ. eigenvalues --   -0.33431  -0.28942  -0.26817
 Alpha virt. eigenvalues --    0.00556   0.01625   0.03794   0.04570   0.04696
 Alpha virt. eigenvalues --    0.05734   0.05871   0.06017   0.06663   0.07108
 Alpha virt. eigenvalues --    0.07531   0.07623   0.07793   0.08954   0.09261
 Alpha virt. eigenvalues --    0.09496   0.09750   0.09892   0.10187   0.10475
 Alpha virt. eigenvalues --    0.11622   0.12062   0.12254   0.12600   0.13136
 Alpha virt. eigenvalues --    0.13574   0.14063   0.14832   0.14924   0.15553
 Alpha virt. eigenvalues --    0.15676   0.15955   0.16066   0.16313   0.16406
 Alpha virt. eigenvalues --    0.17212   0.17503   0.17740   0.18044   0.18298
 Alpha virt. eigenvalues --    0.18703   0.19005   0.19144   0.19405   0.19477
 Alpha virt. eigenvalues --    0.19942   0.20234   0.20640   0.20809   0.21163
 Alpha virt. eigenvalues --    0.21340   0.21526   0.21572   0.21816   0.22310
 Alpha virt. eigenvalues --    0.22385   0.22527   0.23277   0.23411   0.23869
 Alpha virt. eigenvalues --    0.24115   0.24323   0.24708   0.24862   0.25081
 Alpha virt. eigenvalues --    0.25257   0.25665   0.26267   0.26477   0.26534
 Alpha virt. eigenvalues --    0.26934   0.27317   0.27983   0.28222   0.28599
 Alpha virt. eigenvalues --    0.29269   0.29449   0.30099   0.30169   0.30369
 Alpha virt. eigenvalues --    0.30838   0.31178   0.31460   0.31630   0.31798
 Alpha virt. eigenvalues --    0.32483   0.33156   0.33521   0.33785   0.34458
 Alpha virt. eigenvalues --    0.35318   0.35541   0.35870   0.35888   0.36140
 Alpha virt. eigenvalues --    0.36685   0.37265   0.37529   0.38101   0.38663
 Alpha virt. eigenvalues --    0.38875   0.39065   0.39607   0.39709   0.39898
 Alpha virt. eigenvalues --    0.40098   0.40724   0.41413   0.42020   0.42698
 Alpha virt. eigenvalues --    0.43031   0.43130   0.43967   0.44447   0.45114
 Alpha virt. eigenvalues --    0.45734   0.46060   0.46453   0.48060   0.49253
 Alpha virt. eigenvalues --    0.49471   0.50555   0.52562   0.53700   0.54468
 Alpha virt. eigenvalues --    0.55223   0.57374   0.57959   0.58532   0.59977
 Alpha virt. eigenvalues --    0.60485   0.60780   0.61045   0.62364   0.63235
 Alpha virt. eigenvalues --    0.63654   0.63760   0.64270   0.64875   0.65666
 Alpha virt. eigenvalues --    0.66397   0.67054   0.67712   0.68102   0.69004
 Alpha virt. eigenvalues --    0.69676   0.70278   0.70521   0.70944   0.71360
 Alpha virt. eigenvalues --    0.72148   0.72354   0.72707   0.73719   0.74569
 Alpha virt. eigenvalues --    0.74948   0.75582   0.76213   0.76522   0.76815
 Alpha virt. eigenvalues --    0.77581   0.77797   0.78295   0.79128   0.79371
 Alpha virt. eigenvalues --    0.79921   0.80892   0.81274   0.81748   0.82703
 Alpha virt. eigenvalues --    0.83121   0.84011   0.84316   0.84931   0.85047
 Alpha virt. eigenvalues --    0.85130   0.85680   0.86256   0.87433   0.87759
 Alpha virt. eigenvalues --    0.88277   0.89464   0.90647   0.91029   0.91237
 Alpha virt. eigenvalues --    0.93330   0.93635   0.94670   0.95164   0.95950
 Alpha virt. eigenvalues --    0.97404   0.98661   0.99561   1.00233   1.00774
 Alpha virt. eigenvalues --    1.01100   1.01754   1.02715   1.02829   1.03205
 Alpha virt. eigenvalues --    1.05088   1.05441   1.05781   1.06397   1.07529
 Alpha virt. eigenvalues --    1.09054   1.09249   1.10400   1.11002   1.13646
 Alpha virt. eigenvalues --    1.14504   1.15170   1.16089   1.17270   1.17668
 Alpha virt. eigenvalues --    1.18294   1.19635   1.20128   1.21201   1.22614
 Alpha virt. eigenvalues --    1.22864   1.23892   1.25304   1.27716   1.29019
 Alpha virt. eigenvalues --    1.32690   1.34581   1.36399   1.37678   1.39662
 Alpha virt. eigenvalues --    1.40571   1.42498   1.44391   1.45835   1.46391
 Alpha virt. eigenvalues --    1.50780   1.51685   1.52337   1.52943   1.54370
 Alpha virt. eigenvalues --    1.55523   1.55628   1.57287   1.57783   1.58399
 Alpha virt. eigenvalues --    1.59739   1.60342   1.61051   1.61424   1.62009
 Alpha virt. eigenvalues --    1.62381   1.64085   1.64643   1.65788   1.67163
 Alpha virt. eigenvalues --    1.67561   1.68286   1.69530   1.70684   1.71103
 Alpha virt. eigenvalues --    1.71270   1.73686   1.74467   1.75571   1.76038
 Alpha virt. eigenvalues --    1.76967   1.77780   1.78295   1.79326   1.79776
 Alpha virt. eigenvalues --    1.80807   1.81576   1.82347   1.83417   1.84859
 Alpha virt. eigenvalues --    1.85339   1.86049   1.86380   1.87238   1.89071
 Alpha virt. eigenvalues --    1.90146   1.91305   1.92547   1.93189   1.94215
 Alpha virt. eigenvalues --    1.94957   1.95968   1.96671   1.97945   1.98234
 Alpha virt. eigenvalues --    1.99000   2.00001   2.01029   2.02277   2.03338
 Alpha virt. eigenvalues --    2.04591   2.05325   2.06567   2.07008   2.07826
 Alpha virt. eigenvalues --    2.08703   2.10128   2.11999   2.12333   2.14832
 Alpha virt. eigenvalues --    2.16376   2.17351   2.18053   2.19463   2.20747
 Alpha virt. eigenvalues --    2.22272   2.22325   2.23132   2.23953   2.27172
 Alpha virt. eigenvalues --    2.27736   2.29636   2.31118   2.32454   2.34634
 Alpha virt. eigenvalues --    2.35818   2.37370   2.39174   2.40696   2.43954
 Alpha virt. eigenvalues --    2.45088   2.45328   2.47046   2.48526   2.51221
 Alpha virt. eigenvalues --    2.51485   2.53897   2.54996   2.56480   2.57124
 Alpha virt. eigenvalues --    2.58097   2.58963   2.59524   2.59659   2.61886
 Alpha virt. eigenvalues --    2.62604   2.64621   2.64918   2.66428   2.67862
 Alpha virt. eigenvalues --    2.68220   2.69162   2.70098   2.70803   2.72602
 Alpha virt. eigenvalues --    2.73048   2.75664   2.75893   2.76600   2.78143
 Alpha virt. eigenvalues --    2.78453   2.79923   2.81227   2.81474   2.82358
 Alpha virt. eigenvalues --    2.82551   2.82653   2.83781   2.84752   2.85528
 Alpha virt. eigenvalues --    2.86029   2.87774   2.88226   2.88754   2.90355
 Alpha virt. eigenvalues --    2.90930   2.92109   2.94009   2.94190   2.95774
 Alpha virt. eigenvalues --    2.96405   2.97555   2.98800   3.00438   3.01381
 Alpha virt. eigenvalues --    3.04235   3.07525   3.08180   3.10515   3.11703
 Alpha virt. eigenvalues --    3.13124   3.15226   3.18297   3.20099   3.22136
 Alpha virt. eigenvalues --    3.22369   3.24622   3.28197   3.29328   3.31741
 Alpha virt. eigenvalues --    3.34208   3.36488   3.44695   3.48276   3.52684
 Alpha virt. eigenvalues --    3.53007   3.59645   3.61080   3.64137   3.66872
 Alpha virt. eigenvalues --    3.68380   3.68866   3.74068   3.77026   3.78598
 Alpha virt. eigenvalues --    3.80878   3.85240   3.87334   3.89326   3.91726
 Alpha virt. eigenvalues --    3.93211   3.94293   3.95316   3.97605   3.98521
 Alpha virt. eigenvalues --    4.06284   4.09611   4.14075   4.14379   4.17107
 Alpha virt. eigenvalues --    4.24511   4.30577   4.41486   4.46378   4.53882
 Alpha virt. eigenvalues --    4.88784   4.97977   5.00676   5.16721  14.83765
 Alpha virt. eigenvalues --   23.65290  23.81673  24.04065  24.05479  24.06167
 Alpha virt. eigenvalues --   24.08415  24.09793  24.11528  24.13632  24.18205
 Alpha virt. eigenvalues --   24.20323  24.23885  24.28053  24.30528  24.31722
 Alpha virt. eigenvalues --   24.48835  35.76555
          Condensed to atoms (all electrons):
               1          2          3          4          5          6
     1  C   11.054571   1.132664  -1.913014   2.745390  -1.531037   0.105866
     2  C    1.132664  10.605404  -0.013503  -0.052957  -0.709686  -0.335816
     3  C   -1.913014  -0.013503   9.615607  -0.540908  -2.796156  -1.135189
     4  C    2.745390  -0.052957  -0.540908   7.370295  -1.585709   0.866305
     5  C   -1.531037  -0.709686  -2.796156  -1.585709  10.627554   0.928263
     6  C    0.105866  -0.335816  -1.135189   0.866305   0.928263   7.795731
     7  C   -0.060700  -0.078963  -0.800864   0.068456   1.111277  -0.712529
     8  H   -0.018425   0.010387  -0.018897   0.004575   0.411240  -0.009204
     9  C   -1.052183   0.206873   2.096829  -0.515538  -2.100640  -0.998672
    10  H    0.005076  -0.005148   0.002714   0.008990  -0.042046   0.018394
    11  H   -0.020579   0.006832   0.038288   0.012903  -0.033950  -0.053992
    12  C   -4.269856  -3.883026   1.318173  -1.535135   1.639746   0.348998
    13  H   -0.019292  -0.070991   0.021323  -0.026945   0.016654   0.001929
    14  C    0.325505  -0.875324  -0.045900   0.105383  -0.109664   0.119625
    15  H   -0.001357  -0.028517   0.001790   0.006042  -0.000458   0.002562
    16  C   -0.897475   1.413443   0.089357  -0.680740   0.153782  -0.448123
    17  C   -0.052236  -1.281079   0.070459  -0.185716   0.469977  -0.088812
    18  H   -0.018460   0.052907   0.007726  -0.021897   0.008421  -0.013988
    19  B   -0.017040  -0.083297  -0.007348  -0.025612   0.009378  -0.030836
    20  N    0.111968  -0.025462  -0.120633  -0.171184   0.084444  -0.100749
    21  C    0.112176  -0.084181  -0.058360   0.077851  -0.021129   0.044400
    22  H   -0.021813   0.039875   0.035639  -0.044459   0.011610  -0.086328
    23  H   -0.003789   0.001583   0.002665  -0.000820  -0.003949   0.022464
    24  H    0.006159  -0.000186  -0.003175   0.004243  -0.002403   0.017582
    25  C   -0.080730   0.032750   0.038378  -0.047093   0.002928   0.002544
    26  H    0.005208   0.002275  -0.000272   0.003921  -0.000362   0.001089
    27  H   -0.005397   0.007085   0.000252   0.001547  -0.001062   0.004890
    28  H    0.015280  -0.011873  -0.003505   0.007847  -0.001022   0.004934
    29  C   -0.006658   0.022241  -0.031020   0.005494   0.004124  -0.027102
    30  H    0.001422   0.000112   0.007399  -0.004109   0.002577  -0.040378
    31  H   -0.003506   0.000685   0.001278  -0.009237  -0.003762   0.011980
    32  H   -0.004310   0.002315  -0.012913   0.012052   0.007619  -0.003299
    33  C    0.030002  -0.029812  -0.041536  -0.077621  -0.005886  -0.101207
    34  H   -0.010028  -0.006461  -0.001704  -0.001915   0.000804   0.036880
    35  H    0.005109   0.005877   0.009959   0.002667   0.000571  -0.039781
    36  H    0.071439  -0.007223  -0.046918   0.115925   0.004613   0.051986
               7          8          9         10         11         12
     1  C   -0.060700  -0.018425  -1.052183   0.005076  -0.020579  -4.269856
     2  C   -0.078963   0.010387   0.206873  -0.005148   0.006832  -3.883026
     3  C   -0.800864  -0.018897   2.096829   0.002714   0.038288   1.318173
     4  C    0.068456   0.004575  -0.515538   0.008990   0.012903  -1.535135
     5  C    1.111277   0.411240  -2.100640  -0.042046  -0.033950   1.639746
     6  C   -0.712529  -0.009204  -0.998672   0.018394  -0.053992   0.348998
     7  C    7.202869  -0.007028  -0.497508   0.384202  -0.090460  -0.104563
     8  H   -0.007028   0.451535  -0.020690  -0.006805   0.001677   0.003973
     9  C   -0.497508  -0.020690   9.506680  -0.053630   0.507264   0.211619
    10  H    0.384202  -0.006805  -0.053630   0.456269  -0.007130   0.000278
    11  H   -0.090460   0.001677   0.507264  -0.007130   0.483322   0.007067
    12  C   -0.104563   0.003973   0.211619   0.000278   0.007067  11.376963
    13  H    0.000747   0.000901  -0.002929   0.000269  -0.000086   0.425555
    14  C    0.009153   0.001209   0.035126  -0.000261   0.000899   0.855851
    15  H   -0.000326   0.000206   0.000780  -0.000033   0.000045  -0.033808
    16  C    0.007773  -0.000608  -0.113749   0.000503  -0.002505  -1.342415
    17  C    0.113467   0.001804  -0.304578   0.002596  -0.007270   1.326804
    18  H    0.000674  -0.000017  -0.003741   0.000040  -0.000063  -0.021429
    19  B   -0.012357   0.000785  -0.020835   0.000192   0.000128   0.087188
    20  N    0.034302   0.000112  -0.569683  -0.001797  -0.034534  -0.021686
    21  C    0.015587  -0.000340   0.000342   0.000199  -0.000599  -0.022069
    22  H   -0.010870   0.000043  -0.019268  -0.000382   0.001011   0.000553
    23  H    0.003163  -0.000044   0.012350   0.000037  -0.000074  -0.003053
    24  H    0.000725   0.000019   0.004614  -0.000002   0.000009  -0.001952
    25  C   -0.000835   0.000016   0.007136  -0.000025   0.000109   0.028385
    26  H   -0.000114   0.000002   0.001085  -0.000003   0.000031  -0.000938
    27  H   -0.000180   0.000013   0.003269  -0.000008   0.000103  -0.002587
    28  H   -0.000185   0.000004   0.000878  -0.000003   0.000002   0.002874
    29  C   -0.206445  -0.001187  -0.082764   0.001038   0.017950   0.016274
    30  H    0.015176  -0.000040   0.016124   0.000330  -0.005182  -0.001014
    31  H   -0.007188  -0.000063   0.042659   0.000001   0.004858   0.001378
    32  H   -0.001879  -0.000023  -0.014566   0.000336  -0.009971   0.000432
    33  C    0.008720  -0.000297  -0.071664   0.000633  -0.008648  -0.001135
    34  H    0.011605  -0.000015   0.004354   0.000084  -0.001319  -0.004142
    35  H   -0.015032   0.000019  -0.006034  -0.000447   0.002666   0.003520
    36  H   -0.007793   0.000117  -0.023271  -0.000417  -0.001927  -0.014323
              13         14         15         16         17         18
     1  C   -0.019292   0.325505  -0.001357  -0.897475  -0.052236  -0.018460
     2  C   -0.070991  -0.875324  -0.028517   1.413443  -1.281079   0.052907
     3  C    0.021323  -0.045900   0.001790   0.089357   0.070459   0.007726
     4  C   -0.026945   0.105383   0.006042  -0.680740  -0.185716  -0.021897
     5  C    0.016654  -0.109664  -0.000458   0.153782   0.469977   0.008421
     6  C    0.001929   0.119625   0.002562  -0.448123  -0.088812  -0.013988
     7  C    0.000747   0.009153  -0.000326   0.007773   0.113467   0.000674
     8  H    0.000901   0.001209   0.000206  -0.000608   0.001804  -0.000017
     9  C   -0.002929   0.035126   0.000780  -0.113749  -0.304578  -0.003741
    10  H    0.000269  -0.000261  -0.000033   0.000503   0.002596   0.000040
    11  H   -0.000086   0.000899   0.000045  -0.002505  -0.007270  -0.000063
    12  C    0.425555   0.855851  -0.033808  -1.342415   1.326804  -0.021429
    13  H    0.442503  -0.012478  -0.006535   0.018409  -0.008572   0.002443
    14  C   -0.012478   6.377420   0.398744  -0.343345  -0.466732  -0.041888
    15  H   -0.006535   0.398744   0.461682  -0.047783   0.028889  -0.010820
    16  C    0.018409  -0.343345  -0.047783   9.177534  -1.155103   0.519421
    17  C   -0.008572  -0.466732   0.028889  -1.155103   7.343734  -0.161470
    18  H    0.002443  -0.041888  -0.010820   0.519421  -0.161470   0.512451
    19  B    0.001632   0.084208  -0.002297  -0.201346   0.338674  -0.009549
    20  N    0.000320  -0.010811  -0.000147   0.081146   0.081381   0.003121
    21  C   -0.000544   0.064251   0.000697  -0.148962  -0.059155  -0.005524
    22  H    0.000209  -0.010969  -0.000434   0.090526  -0.000455   0.004260
    23  H   -0.000084   0.007606   0.000057   0.009630  -0.003243  -0.002024
    24  H   -0.000028   0.007432   0.000051  -0.024159   0.005505  -0.000449
    25  C   -0.000150  -0.008400  -0.000655   0.112221  -0.227155   0.003670
    26  H    0.000012  -0.006779  -0.000167  -0.029051   0.045329  -0.002536
    27  H   -0.000024   0.002713  -0.000143   0.021491  -0.045238  -0.000507
    28  H   -0.000088   0.005652   0.000720  -0.040688   0.023417  -0.003392
    29  C    0.000074  -0.000762  -0.000000  -0.007886  -0.009127  -0.000087
    30  H    0.000005  -0.000129  -0.000006   0.001802   0.003848   0.000038
    31  H    0.000004  -0.000139   0.000003  -0.003039  -0.006743  -0.000042
    32  H    0.000001  -0.000125  -0.000006  -0.000378   0.000447  -0.000006
    33  C    0.000012   0.009177   0.000075  -0.032974  -0.046773  -0.001507
    34  H    0.000022   0.001996  -0.000003   0.011399   0.003341   0.000144
    35  H   -0.000010  -0.000463  -0.000000  -0.003026   0.003771  -0.000244
    36  H   -0.000396  -0.010611   0.000357  -0.040539   0.030481  -0.001532
              19         20         21         22         23         24
     1  C   -0.017040   0.111968   0.112176  -0.021813  -0.003789   0.006159
     2  C   -0.083297  -0.025462  -0.084181   0.039875   0.001583  -0.000186
     3  C   -0.007348  -0.120633  -0.058360   0.035639   0.002665  -0.003175
     4  C   -0.025612  -0.171184   0.077851  -0.044459  -0.000820   0.004243
     5  C    0.009378   0.084444  -0.021129   0.011610  -0.003949  -0.002403
     6  C   -0.030836  -0.100749   0.044400  -0.086328   0.022464   0.017582
     7  C   -0.012357   0.034302   0.015587  -0.010870   0.003163   0.000725
     8  H    0.000785   0.000112  -0.000340   0.000043  -0.000044   0.000019
     9  C   -0.020835  -0.569683   0.000342  -0.019268   0.012350   0.004614
    10  H    0.000192  -0.001797   0.000199  -0.000382   0.000037  -0.000002
    11  H    0.000128  -0.034534  -0.000599   0.001011  -0.000074   0.000009
    12  C    0.087188  -0.021686  -0.022069   0.000553  -0.003053  -0.001952
    13  H    0.001632   0.000320  -0.000544   0.000209  -0.000084  -0.000028
    14  C    0.084208  -0.010811   0.064251  -0.010969   0.007606   0.007432
    15  H   -0.002297  -0.000147   0.000697  -0.000434   0.000057   0.000051
    16  C   -0.201346   0.081146  -0.148962   0.090526   0.009630  -0.024159
    17  C    0.338674   0.081381  -0.059155  -0.000455  -0.003243   0.005505
    18  H   -0.009549   0.003121  -0.005524   0.004260  -0.002024  -0.000449
    19  B    5.284762   0.000176   0.207072  -0.128344  -0.213273  -0.102027
    20  N    0.000176   7.225679  -0.015057   0.062854  -0.009929  -0.004760
    21  C    0.207072  -0.015057   5.414906   0.314741   0.465730   0.410769
    22  H   -0.128344   0.062854   0.314741   0.619034  -0.023125  -0.039919
    23  H   -0.213273  -0.009929   0.465730  -0.023125   0.552431   0.004618
    24  H   -0.102027  -0.004760   0.410769  -0.039919   0.004618   0.533180
    25  C    0.256968  -0.004536  -0.089095   0.007739   0.020168  -0.014466
    26  H   -0.138592  -0.000068   0.013944   0.002078   0.006390  -0.000919
    27  H   -0.098250  -0.002951  -0.004351  -0.006978   0.010053   0.000112
    28  H   -0.118713  -0.001345   0.009482  -0.007029  -0.000770  -0.001447
    29  C   -0.006775   0.273037   0.015849  -0.016873   0.003617  -0.001221
    30  H   -0.002016  -0.056209  -0.000961   0.002323  -0.000007   0.000030
    31  H    0.005655  -0.060462   0.000230  -0.006713  -0.000830   0.000078
    32  H    0.001011  -0.046666   0.001995  -0.005143   0.000547   0.000111
    33  C    0.061822   0.301341  -0.047480   0.009184  -0.002125  -0.002596
    34  H   -0.017413  -0.056842   0.027869  -0.007895   0.002039   0.001692
    35  H    0.002330  -0.073959  -0.007701   0.006394   0.000054  -0.000366
    36  H   -0.088914  -0.068440   0.014749  -0.013422  -0.002255   0.001689
              25         26         27         28         29         30
     1  C   -0.080730   0.005208  -0.005397   0.015280  -0.006658   0.001422
     2  C    0.032750   0.002275   0.007085  -0.011873   0.022241   0.000112
     3  C    0.038378  -0.000272   0.000252  -0.003505  -0.031020   0.007399
     4  C   -0.047093   0.003921   0.001547   0.007847   0.005494  -0.004109
     5  C    0.002928  -0.000362  -0.001062  -0.001022   0.004124   0.002577
     6  C    0.002544   0.001089   0.004890   0.004934  -0.027102  -0.040378
     7  C   -0.000835  -0.000114  -0.000180  -0.000185  -0.206445   0.015176
     8  H    0.000016   0.000002   0.000013   0.000004  -0.001187  -0.000040
     9  C    0.007136   0.001085   0.003269   0.000878  -0.082764   0.016124
    10  H   -0.000025  -0.000003  -0.000008  -0.000003   0.001038   0.000330
    11  H    0.000109   0.000031   0.000103   0.000002   0.017950  -0.005182
    12  C    0.028385  -0.000938  -0.002587   0.002874   0.016274  -0.001014
    13  H   -0.000150   0.000012  -0.000024  -0.000088   0.000074   0.000005
    14  C   -0.008400  -0.006779   0.002713   0.005652  -0.000762  -0.000129
    15  H   -0.000655  -0.000167  -0.000143   0.000720  -0.000000  -0.000006
    16  C    0.112221  -0.029051   0.021491  -0.040688  -0.007886   0.001802
    17  C   -0.227155   0.045329  -0.045238   0.023417  -0.009127   0.003848
    18  H    0.003670  -0.002536  -0.000507  -0.003392  -0.000087   0.000038
    19  B    0.256968  -0.138592  -0.098250  -0.118713  -0.006775  -0.002016
    20  N   -0.004536  -0.000068  -0.002951  -0.001345   0.273037  -0.056209
    21  C   -0.089095   0.013944  -0.004351   0.009482   0.015849  -0.000961
    22  H    0.007739   0.002078  -0.006978  -0.007029  -0.016873   0.002323
    23  H    0.020168   0.006390   0.010053  -0.000770   0.003617  -0.000007
    24  H   -0.014466  -0.000919   0.000112  -0.001447  -0.001221   0.000030
    25  C    5.342821   0.430430   0.412746   0.410118   0.001896   0.000076
    26  H    0.430430   0.543169  -0.013878  -0.010254   0.000089   0.000014
    27  H    0.412746  -0.013878   0.544333  -0.019817  -0.000062  -0.000038
    28  H    0.410118  -0.010254  -0.019817   0.579078   0.000219  -0.000003
    29  C    0.001896   0.000089  -0.000062   0.000219   5.376224   0.405306
    30  H    0.000076   0.000014  -0.000038  -0.000003   0.405306   0.579805
    31  H    0.000013  -0.000034   0.000080   0.000052   0.403326  -0.046355
    32  H    0.000001  -0.000041   0.000016   0.000013   0.424573  -0.048382
    33  C    0.008374  -0.001728   0.013494  -0.002778  -0.186961  -0.006718
    34  H   -0.005331   0.002004  -0.005989   0.000157  -0.017870   0.004513
    35  H    0.002745  -0.000057   0.003331  -0.000412  -0.001824   0.010591
    36  H    0.006065   0.001634  -0.009070   0.009656   0.019767  -0.001923
              31         32         33         34         35         36
     1  C   -0.003506  -0.004310   0.030002  -0.010028   0.005109   0.071439
     2  C    0.000685   0.002315  -0.029812  -0.006461   0.005877  -0.007223
     3  C    0.001278  -0.012913  -0.041536  -0.001704   0.009959  -0.046918
     4  C   -0.009237   0.012052  -0.077621  -0.001915   0.002667   0.115925
     5  C   -0.003762   0.007619  -0.005886   0.000804   0.000571   0.004613
     6  C    0.011980  -0.003299  -0.101207   0.036880  -0.039781   0.051986
     7  C   -0.007188  -0.001879   0.008720   0.011605  -0.015032  -0.007793
     8  H   -0.000063  -0.000023  -0.000297  -0.000015   0.000019   0.000117
     9  C    0.042659  -0.014566  -0.071664   0.004354  -0.006034  -0.023271
    10  H    0.000001   0.000336   0.000633   0.000084  -0.000447  -0.000417
    11  H    0.004858  -0.009971  -0.008648  -0.001319   0.002666  -0.001927
    12  C    0.001378   0.000432  -0.001135  -0.004142   0.003520  -0.014323
    13  H    0.000004   0.000001   0.000012   0.000022  -0.000010  -0.000396
    14  C   -0.000139  -0.000125   0.009177   0.001996  -0.000463  -0.010611
    15  H    0.000003  -0.000006   0.000075  -0.000003  -0.000000   0.000357
    16  C   -0.003039  -0.000378  -0.032974   0.011399  -0.003026  -0.040539
    17  C   -0.006743   0.000447  -0.046773   0.003341   0.003771   0.030481
    18  H   -0.000042  -0.000006  -0.001507   0.000144  -0.000244  -0.001532
    19  B    0.005655   0.001011   0.061822  -0.017413   0.002330  -0.088914
    20  N   -0.060462  -0.046666   0.301341  -0.056842  -0.073959  -0.068440
    21  C    0.000230   0.001995  -0.047480   0.027869  -0.007701   0.014749
    22  H   -0.006713  -0.005143   0.009184  -0.007895   0.006394  -0.013422
    23  H   -0.000830   0.000547  -0.002125   0.002039   0.000054  -0.002255
    24  H    0.000078   0.000111  -0.002596   0.001692  -0.000366   0.001689
    25  C    0.000013   0.000001   0.008374  -0.005331   0.002745   0.006065
    26  H   -0.000034  -0.000041  -0.001728   0.002004  -0.000057   0.001634
    27  H    0.000080   0.000016   0.013494  -0.005989   0.003331  -0.009070
    28  H    0.000052   0.000013  -0.002778   0.000157  -0.000412   0.009656
    29  C    0.403326   0.424573  -0.186961  -0.017870  -0.001824   0.019767
    30  H   -0.046355  -0.048382  -0.006718   0.004513   0.010591  -0.001923
    31  H    0.504326  -0.010453  -0.002155   0.001971  -0.003425   0.004162
    32  H   -0.010453   0.529849   0.014074  -0.003025   0.000532  -0.003963
    33  C   -0.002155   0.014074   5.597578   0.366482   0.464164   0.244714
    34  H    0.001971  -0.003025   0.366482   0.545957  -0.048722  -0.017229
    35  H   -0.003425   0.000532   0.464164  -0.048722   0.540118  -0.068945
    36  H    0.004162  -0.003963   0.244714  -0.017229  -0.068945   0.755992
 Mulliken charges:
               1
     1  C    0.280048
     2  C    0.040197
     3  C    0.233980
     4  C    0.107710
     5  C   -0.546660
     6  C   -0.160417
     7  C   -0.372078
     8  H    0.195043
     9  C   -0.186039
    10  H    0.235957
    11  H    0.193128
    12  C   -0.392499
    13  H    0.216127
    14  C   -0.467172
    15  H    0.230797
    16  C   -0.144543
    17  C    0.215533
    18  H    0.205854
    19  B   -0.017149
    20  N    0.198029
    21  C   -0.647329
    22  H    0.242348
    23  H    0.144192
    24  H    0.201459
    25  C   -0.649825
    26  H    0.147086
    27  H    0.191001
    28  H    0.152938
    29  C   -0.386475
    30  H    0.161979
    31  H    0.181405
    32  H    0.169228
    33  C   -0.458246
    34  H    0.182592
    35  H    0.206033
    36  H    0.095766
 Sum of Mulliken charges =  -0.00000
 Mulliken charges with hydrogens summed into heavy atoms:
               1
     1  C    0.280048
     2  C    0.040197
     3  C    0.233980
     4  C    0.107710
     5  C   -0.351617
     6  C   -0.160417
     7  C   -0.136121
     9  C    0.007089
    12  C   -0.176372
    14  C   -0.236375
    16  C    0.061311
    17  C    0.215533
    19  B   -0.017149
    20  N    0.198029
    21  C   -0.059330
    25  C   -0.158799
    29  C    0.126136
    33  C    0.026146
 Electronic spatial extent (au):  <R**2>=          10513.0672
 Charge=             -0.0000 electrons
 Dipole moment (field-independent basis, Debye):
    X=             -0.8396    Y=              1.0546    Z=              1.3047  Tot=              1.8760
 Quadrupole moment (field-independent basis, Debye-Ang):
   XX=           -114.8071   YY=            -91.9223   ZZ=            -95.8896
   XY=             -5.0527   XZ=             -0.9139   YZ=              7.7615
 Traceless Quadrupole moment (field-independent basis, Debye-Ang):
   XX=            -13.9341   YY=              8.9507   ZZ=              4.9834
   XY=             -5.0527   XZ=             -0.9139   YZ=              7.7615
 Octapole moment (field-independent basis, Debye-Ang**2):
  XXX=           -580.7495  YYY=           -888.2421  ZZZ=           -142.8887  XYY=           -191.7783
  XXY=           -379.6270  XXZ=            -41.8473  XZZ=           -171.7381  YZZ=           -294.1715
  YYZ=             -9.8545  XYZ=              0.5688
 Hexadecapole moment (field-independent basis, Debye-Ang**3):
 XXXX=          -2476.4656 YYYY=          -8663.6702 ZZZZ=          -2480.5058 XXXY=          -1527.9118
 XXXZ=           -180.0319 YYYX=          -1384.4368 YYYZ=           -213.5742 ZZZX=           -253.2990
 ZZZY=           -393.2911 XXYY=          -2192.9659 XXZZ=           -844.3898 YYZZ=          -1823.4918
 XXYZ=           -131.0745 YYXZ=            -61.0516 ZZXY=           -435.6005
 N-N= 1.236434769717D+03 E-N=-4.097030668013D+03  KE= 6.969127177967D+02
 Breneman (CHELPG) radii used.
 Generate Potential Derived Charges using the Breneman model, NDens= 1.
 Grid spacing= 0.300 Box extension= 2.800
 NStep X,Y,Z=   37     48     45   Total possible points=       79920
 Number of Points to Fit=   20320

 **********************************************************************

            Electrostatic Properties Using The SCF Density.

 **********************************************************************

       Atomic Center    1 is at   1.894637  2.477796 -0.177752
       Atomic Center    2 is at   1.854418  2.552250 -1.592959
       Atomic Center    3 is at   1.555138  4.024907 -1.508883
       Atomic Center    4 is at   1.541245  3.946495 -0.099345
       Atomic Center    5 is at   1.370612  5.188826 -2.202502
       Atomic Center    6 is at   1.258188  5.039724  0.699716
       Atomic Center    7 is at   1.137798  6.324591 -1.398300
       Atomic Center    8 is at   1.398240  5.256092 -3.282736
       Atomic Center    9 is at   1.074310  6.256463 -0.017735
       Atomic Center   10 is at   0.981381  7.287163 -1.873384
       Atomic Center   11 is at   0.858510  7.166412  0.527612
       Atomic Center   12 is at   2.081817  1.472220 -2.393224
       Atomic Center   13 is at   2.063617  1.517064 -3.475824
       Atomic Center   14 is at   2.349186  0.256165 -1.714791
       Atomic Center   15 is at   2.528782 -0.643258 -2.293608
       Atomic Center   16 is at   2.393439  0.190584 -0.337123
       Atomic Center   17 is at   2.196105  1.324523  0.514657
       Atomic Center   18 is at   2.615864 -0.767807  0.121803
       Atomic Center   19 is at   2.435766  1.210676  2.061333
       Atomic Center   20 is at   1.167939  4.957687  2.089863
       Atomic Center   21 is at   3.229409  2.344112  2.803351
       Atomic Center   22 is at   3.066525  3.347752  2.400736
       Atomic Center   23 is at   3.076583  2.354824  3.886783
       Atomic Center   24 is at   4.293826  2.115320  2.637544
       Atomic Center   25 is at   1.946943 -0.053137  2.858484
       Atomic Center   26 is at   2.629611 -0.339508  3.664720
       Atomic Center   27 is at   1.012029  0.251261  3.354524
       Atomic Center   28 is at   1.706933 -0.930670  2.253291
       Atomic Center   29 is at   1.051010  6.189170  2.843306
       Atomic Center   30 is at   0.072701  6.680254  2.717274
       Atomic Center   31 is at   1.179619  5.960221  3.903020
       Atomic Center   32 is at   1.836753  6.888991  2.554253
       Atomic Center   33 is at   0.330919  3.891016  2.615981
       Atomic Center   34 is at   0.625187  3.663815  3.643269
       Atomic Center   35 is at  -0.733264  4.171588  2.606322
       Atomic Center   36 is at   0.441415  2.985015  2.021461
   20320 points will be used for fitting atomic charges
 Fitting point charges to electrostatic potential
 Charges from ESP fit, RMS=   0.00412 RRMS=   0.36133:
 ESP charges:
               1
     1  C    0.180329
     2  C   -0.019496
     3  C    0.135064
     4  C   -0.232698
     5  C   -0.262114
     6  C    0.313243
     7  C   -0.041512
     8  H    0.141210
     9  C   -0.289052
    10  H    0.101772
    11  H    0.136531
    12  C   -0.135303
    13  H    0.121381
    14  C   -0.123462
    15  H    0.100957
    16  C   -0.109896
    17  C   -0.271839
    18  H    0.090321
    19  B    0.628794
    20  N   -0.180098
    21  C   -0.364733
    22  H   -0.005163
    23  H    0.076399
    24  H    0.053274
    25  C   -0.483186
    26  H    0.086708
    27  H    0.084340
    28  H    0.091711
    29  C   -0.161938
    30  H    0.066279
    31  H    0.085014
    32  H    0.077508
    33  C    0.121516
    34  H    0.040664
    35  H   -0.011626
    36  H   -0.040895
 Sum of ESP charges =  -0.00000
 ESP charges with hydrogens summed into heavy atoms:
               1
     1  C    0.180329
     2  C   -0.019496
     3  C    0.135064
     4  C   -0.232698
     5  C   -0.120904
     6  C    0.313243
     7  C    0.060259
     9  C   -0.152521
    12  C   -0.013922
    14  C   -0.022505
    16  C   -0.019576
    17  C   -0.271839
    19  B    0.628794
    20  N   -0.180098
    21  C   -0.240223
    25  C   -0.220427
    29  C    0.066863
    33  C    0.109659
 Charge=  -0.00000 Dipole=    -0.8994     1.0732     1.1386 Tot=     1.8048
 -----------------------------------------------------------------

              Electrostatic Properties (Atomic Units)

 -----------------------------------------------------------------
    Center     Electric         -------- Electric Field --------
               Potential          X             Y             Z
 -----------------------------------------------------------------
    1 Atom    -14.764865
    2 Atom    -14.771404
    3 Atom    -14.767879
    4 Atom    -14.773359
    5 Atom    -14.778306
    6 Atom    -14.728442
    7 Atom    -14.771015
    8 Atom     -1.103831
    9 Atom    -14.774191
   10 Atom     -1.106150
   11 Atom     -1.101435
   12 Atom    -14.772747
   13 Atom     -1.101641
   14 Atom    -14.778001
   15 Atom     -1.110755
   16 Atom    -14.776863
   17 Atom    -14.792027
   18 Atom     -1.113898
   19 Atom    -11.471096
   20 Atom    -18.371978
   21 Atom    -14.815076
   22 Atom     -1.132375
   23 Atom     -1.129451
   24 Atom     -1.111838
   25 Atom    -14.807310
   26 Atom     -1.121272
   27 Atom     -1.104404
   28 Atom     -1.126566
   29 Atom    -14.741658
   30 Atom     -1.109126
   31 Atom     -1.103166
   32 Atom     -1.104790
   33 Atom    -14.743109
   34 Atom     -1.107559
   35 Atom     -1.111828
   36 Atom     -1.105759
 -----------------------------------------------------------------
 Unable to Open any file for archive entry.
 1\1\GINC-IRENE4405\SP\RwB97XD\GenECP\C16H18B1N1\PENASFRA\10-Apr-2024\0
 \\# wb97xd/genecp scrf=(solvent=toluene,pcm) nosymm pop=(chelpg) scfcy
 c=300\\me_biphenylene_chelpg\\0,1\C,0,1.894637,2.477796,-0.177752\C,0,
 1.854418,2.55225,-1.592959\C,0,1.555138,4.024907,-1.508883\C,0,1.54124
 5,3.946495,-0.099345\C,0,1.370612,5.188826,-2.202502\C,0,1.258188,5.03
 9724,0.699716\C,0,1.137798,6.324591,-1.3983\H,0,1.39824,5.256092,-3.28
 2736\C,0,1.07431,6.256463,-0.017735\H,0,0.981381,7.287163,-1.873384\H,
 0,0.85851,7.166412,0.527612\C,0,2.081817,1.47222,-2.393224\H,0,2.06361
 7,1.517064,-3.475824\C,0,2.349186,0.256165,-1.714791\H,0,2.528782,-0.6
 43258,-2.293608\C,0,2.393439,0.190584,-0.337123\C,0,2.196105,1.324523,
 0.514657\H,0,2.615864,-0.767807,0.121803\B,0,2.435766,1.210676,2.06133
 3\N,0,1.167939,4.957687,2.089863\C,0,3.229409,2.344112,2.803351\H,0,3.
 066525,3.347752,2.400736\H,0,3.076583,2.354824,3.886783\H,0,4.293826,2
 .11532,2.637544\C,0,1.946943,-0.053137,2.858484\H,0,2.629611,-0.339508
 ,3.66472\H,0,1.012029,0.251261,3.354524\H,0,1.706933,-0.93067,2.253291
 \C,0,1.05101,6.18917,2.843306\H,0,0.072701,6.680254,2.717274\H,0,1.179
 619,5.960221,3.90302\H,0,1.836753,6.888991,2.554253\C,0,0.330919,3.891
 016,2.615981\H,0,0.625187,3.663815,3.643269\H,0,-0.733264,4.171588,2.6
 06322\H,0,0.441415,2.985015,2.021461\\Version=AS64L-G16RevC.02\HF=-700
 .0358388\RMSD=9.265e-09\Dipole=-0.3303422,0.4148922,0.5133044\Quadrupo
 le=-10.3596537,6.6546131,3.7050406,-3.7565479,-0.6794578,5.770521\PG=C
 01 [X(C16H18B1N1)]\\@
 The archive entry for this job was punched.


 IN-LAWS ARE LIKE SEEDS. YOU DON'T NEED THEM
 BUT THEY COME WITH THE TOMATO.
 Job cpu time:       0 days  1 hours 34 minutes  8.6 seconds.
 Elapsed time:       0 days  0 hours  0 minutes 58.6 seconds.
 File lengths (MBytes):  RWF=    255 Int=      0 D2E=      0 Chk=     18 Scr=      1
 Normal termination of Gaussian 16 at Wed Apr 10 14:44:46 2024.
