 Entering Gaussian System, Link 0=/ccc/products/gaussian-16-C.02/system/default/g16/g16
 Input=me_Bbenzoxanthene_chelpg.gjf
 Output=me_Bbenzoxanthene_chelpg.log
 Initial command:
 /ccc/products/gaussian-16-C.02/system/default/g16/l1.exe "/ccc/scratch/cont003/gen7343/penasfra/flp/b-n_flp/me_Bbenzoxanthene/reactant/Gau-3960224.inp" -scrdir="/ccc/scratch/cont003/gen7343/penasfra/flp/b-n_flp/me_Bbenzoxanthene/reactant/"
 Entering Link 1 = /ccc/products/gaussian-16-C.02/system/default/g16/l1.exe PID=   3960273.
  
 Copyright (c) 1988-2021, Gaussian, Inc.  All Rights Reserved.
  
 This is part of the Gaussian(R) 16 program.  It is based on
 the Gaussian(R) 09 system (copyright 2009, Gaussian, Inc.),
 the Gaussian(R) 03 system (copyright 2003, Gaussian, Inc.),
 the Gaussian(R) 98 system (copyright 1998, Gaussian, Inc.),
 the Gaussian(R) 94 system (copyright 1995, Gaussian, Inc.),
 the Gaussian 92(TM) system (copyright 1992, Gaussian, Inc.),
 the Gaussian 90(TM) system (copyright 1990, Gaussian, Inc.),
 the Gaussian 88(TM) system (copyright 1988, Gaussian, Inc.),
 the Gaussian 86(TM) system (copyright 1986, Carnegie Mellon
 University), and the Gaussian 82(TM) system (copyright 1983,
 Carnegie Mellon University). Gaussian is a federally registered
 trademark of Gaussian, Inc.
  
 This software contains proprietary and confidential information,
 including trade secrets, belonging to Gaussian, Inc.
  
 This software is provided under written license and may be
 used, copied, transmitted, or stored only in accord with that
 written license.
  
 The following legend is applicable only to US Government
 contracts under FAR:
  
                    RESTRICTED RIGHTS LEGEND
  
 Use, reproduction and disclosure by the US Government is
 subject to restrictions as set forth in subparagraphs (a)
 and (c) of the Commercial Computer Software - Restricted
 Rights clause in FAR 52.227-19.
  
 Gaussian, Inc.
 340 Quinnipiac St., Bldg. 40, Wallingford CT 06492
  
  
 ---------------------------------------------------------------
 Warning -- This program may not be used in any manner that
 competes with the business of Gaussian, Inc. or will provide
 assistance to any competitor of Gaussian, Inc.  The licensee
 of this program is prohibited from giving any competitor of
 Gaussian, Inc. access to this program.  By using this program,
 the user acknowledges that Gaussian, Inc. is engaged in the
 business of creating and licensing software in the field of
 computational chemistry and represents and warrants to the
 licensee that it is not a competitor of Gaussian, Inc. and that
 it will not use this program in any manner prohibited above.
 ---------------------------------------------------------------
  

 Cite this work as:
 Gaussian 16, Revision C.02,
 M. J. Frisch, G. W. Trucks, H. B. Schlegel, G. E. Scuseria, 
 M. A. Robb, J. R. Cheeseman, G. Scalmani, V. Barone, 
 G. A. Petersson, H. Nakatsuji, X. Li, M. Caricato, A. V. Marenich, 
 J. Bloino, B. G. Janesko, R. Gomperts, B. Mennucci, H. P. Hratchian, 
 J. V. Ortiz, A. F. Izmaylov, J. L. Sonnenberg, D. Williams-Young, 
 F. Ding, F. Lipparini, F. Egidi, J. Goings, B. Peng, A. Petrone, 
 T. Henderson, D. Ranasinghe, V. G. Zakrzewski, J. Gao, N. Rega, 
 G. Zheng, W. Liang, M. Hada, M. Ehara, K. Toyota, R. Fukuda, 
 J. Hasegawa, M. Ishida, T. Nakajima, Y. Honda, O. Kitao, H. Nakai, 
 T. Vreven, K. Throssell, J. A. Montgomery, Jr., J. E. Peralta, 
 F. Ogliaro, M. J. Bearpark, J. J. Heyd, E. N. Brothers, K. N. Kudin, 
 V. N. Staroverov, T. A. Keith, R. Kobayashi, J. Normand, 
 K. Raghavachari, A. P. Rendell, J. C. Burant, S. S. Iyengar, 
 J. Tomasi, M. Cossi, J. M. Millam, M. Klene, C. Adamo, R. Cammi, 
 J. W. Ochterski, R. L. Martin, K. Morokuma, O. Farkas, 
 J. B. Foresman, and D. J. Fox, Gaussian, Inc., Wallingford CT, 2019.
 
 ******************************************
 Gaussian 16:  AS64L-G16RevC.02  7-Dec-2021
                10-Apr-2024 
 ******************************************
 %nprocshared=128
 Will use up to  128 processors via shared memory.
 %mem=30GB
 %chk=me_Bbenzoxanthene_chelpg.chk
 ----------------------------------------------------------------------
 # wb97xd/genecp scrf=(solvent=toluene,pcm) nosymm pop=(chelpg) scfcyc=
 300
 ----------------------------------------------------------------------
 1/38=1,172=1/1;
 2/12=2,15=1,17=6,18=5,40=1/2;
 3/5=7,11=2,16=1,17=8,25=1,30=1,70=2201,72=13,74=-58/1,2,3;
 4//1;
 5/5=2,7=300,38=5,53=13/2;
 6/7=2,8=2,9=2,10=2,15=8,20=3,28=1/1,2;
 99/5=1,9=1/99;
 ------------------------
 me_Bbenzoxanthene_chelpg
 ------------------------
 Symbolic Z-matrix:
 Charge =  0 Multiplicity = 1
 C                    -2.16334   1.65999   1.17471 
 C                    -0.9351    1.82904   1.87428 
 C                    -0.10264   2.89525   1.6766 
 C                    -0.45849   3.91737   0.76324 
 C                    -1.68416   3.808     0.05754 
 C                    -2.49793   2.67049   0.28553 
 H                    -0.63888   1.06413   2.5839 
 H                     0.8322    2.97634   2.22028 
 C                    -2.08328   4.81708  -0.86502 
 O                    -3.69039   2.56478  -0.35744 
 C                    -3.36233   4.62303  -1.56525 
 C                    -4.11343   3.49247  -1.25902 
 C                    -3.85151   5.49911  -2.54372 
 C                    -5.35182   3.21222  -1.87598 
 C                    -5.04756   5.23659  -3.17852 
 C                    -5.79548   4.10816  -2.84432 
 H                    -5.41727   5.91513  -3.93841 
 H                    -6.73703   3.93083  -3.34766 
 B                    -3.02284   0.36584   1.41619 
 N                    -6.0422    2.03354  -1.53976 
 C                    -3.06655  -0.28155   2.85281 
 H                    -4.03604   0.01905   3.27956 
 H                    -3.08835  -1.37585   2.81973 
 H                    -2.30092   0.04353   3.56061 
 C                    -3.80884  -0.37325   0.27049 
 H                    -3.10339  -1.123    -0.1227 
 H                    -4.66407  -0.94282   0.64947 
 H                    -4.1251    0.24544  -0.56851 
 C                    -6.51016   1.93634  -0.16089 
 H                    -7.38506   2.58186   0.01519 
 H                    -6.7939    0.90184   0.04607 
 H                    -5.72058   2.21354   0.53346 
 C                    -7.04804   1.58366  -2.48169 
 H                    -7.33803   0.56463  -2.21654 
 H                    -7.95929   2.20477  -2.47687 
 H                    -6.63861   1.56882  -3.49326 
 C                    -1.25992   5.905    -1.05626 
 C                    -0.04341   6.01783  -0.35655 
 C                     0.3545    5.05276   0.53041 
 H                     0.58353   6.8858   -0.52812 
 H                     1.29321   5.14572   1.06559 
 H                    -3.28575   6.38133  -2.81391 
 H                    -1.53589   6.69102  -1.74742 
 
                          Input orientation:                          
 ---------------------------------------------------------------------
 Center     Atomic      Atomic             Coordinates (Angstroms)
 Number     Number       Type             X           Y           Z
 ---------------------------------------------------------------------
      1          6           0       -2.163343    1.659987    1.174706
      2          6           0       -0.935102    1.829042    1.874281
      3          6           0       -0.102638    2.895248    1.676599
      4          6           0       -0.458489    3.917373    0.763241
      5          6           0       -1.684160    3.808004    0.057539
      6          6           0       -2.497925    2.670494    0.285533
      7          1           0       -0.638884    1.064130    2.583899
      8          1           0        0.832202    2.976339    2.220276
      9          6           0       -2.083277    4.817084   -0.865019
     10          8           0       -3.690392    2.564777   -0.357442
     11          6           0       -3.362328    4.623025   -1.565254
     12          6           0       -4.113434    3.492467   -1.259024
     13          6           0       -3.851512    5.499111   -2.543724
     14          6           0       -5.351822    3.212216   -1.875982
     15          6           0       -5.047558    5.236591   -3.178521
     16          6           0       -5.795478    4.108159   -2.844317
     17          1           0       -5.417269    5.915128   -3.938410
     18          1           0       -6.737028    3.930825   -3.347657
     19          5           0       -3.022839    0.365843    1.416187
     20          7           0       -6.042203    2.033540   -1.539764
     21          6           0       -3.066547   -0.281546    2.852805
     22          1           0       -4.036036    0.019048    3.279564
     23          1           0       -3.088348   -1.375848    2.819726
     24          1           0       -2.300918    0.043529    3.560612
     25          6           0       -3.808838   -0.373247    0.270488
     26          1           0       -3.103386   -1.122997   -0.122704
     27          1           0       -4.664065   -0.942820    0.649471
     28          1           0       -4.125100    0.245435   -0.568513
     29          6           0       -6.510158    1.936341   -0.160888
     30          1           0       -7.385061    2.581862    0.015187
     31          1           0       -6.793902    0.901835    0.046072
     32          1           0       -5.720583    2.213535    0.533457
     33          6           0       -7.048036    1.583660   -2.481687
     34          1           0       -7.338027    0.564633   -2.216540
     35          1           0       -7.959290    2.204771   -2.476870
     36          1           0       -6.638605    1.568823   -3.493261
     37          6           0       -1.259915    5.905003   -1.056263
     38          6           0       -0.043410    6.017831   -0.356554
     39          6           0        0.354498    5.052756    0.530409
     40          1           0        0.583533    6.885797   -0.528115
     41          1           0        1.293207    5.145722    1.065594
     42          1           0       -3.285746    6.381335   -2.813909
     43          1           0       -1.535887    6.691017   -1.747420
 ---------------------------------------------------------------------
                    Distance matrix (angstroms):
                    1          2          3          4          5
     1  C    0.000000
     2  C    1.423573   0.000000
     3  C    2.454439   1.367066   0.000000
     4  C    2.858605   2.413026   1.416189   0.000000
     5  C    2.468128   2.788894   2.440428   1.418537   0.000000
     6  C    1.386974   2.382137   2.779025   2.437665   1.417083
     7  H    2.159825   1.084617   2.112758   3.389444   3.873492
     8  H    3.435009   2.135267   1.084475   2.162031   3.420698
     9  C    3.759541   4.213130   3.751827   2.469949   1.424307
    10  O    2.344782   3.621259   4.137452   3.678402   2.396412
    11  C    4.210052   5.052541   4.911253   3.788418   2.472643
    12  C    3.617165   4.763022   5.006100   4.198657   2.781056
    13  C    5.604954   6.441554   6.216533   4.995049   3.784683
    14  C    4.677875   5.956934   6.346277   5.604235   4.188700
    15  C    6.329406   7.352176   7.314801   6.191719   4.881126
    16  C    5.944619   7.147223   7.370092   6.444713   5.041210
    17  H    7.405283   8.400791   8.300199   7.119413   5.860348
    18  H    6.821075   8.083840   8.386340   7.504646   6.094417
    19  B    1.572213   2.590260   3.872115   4.428950   3.935284
    20  N    4.749047   6.146544   6.809256   6.326968   4.969169
    21  C    2.720541   3.155178   4.501137   5.366485   5.142852
    22  H    3.260381   3.855735   5.129683   5.858981   5.501723
    23  H    3.574636   3.975129   5.335116   6.258073   6.039350
    24  H    2.885206   2.810200   4.063772   5.121181   5.179110
    25  C    2.767545   3.959872   5.137716   5.465992   4.694940
    26  H    3.211223   4.171803   5.328065   5.760704   5.134341
    27  H    3.647477   4.805054   6.049163   6.428164   5.639197
    28  H    2.981319   4.318697   5.314343   5.357307   4.363717
    29  C    4.555764   5.935880   6.734402   6.434376   5.180839
    30  H    5.427769   6.754624   7.476108   7.093700   5.831423
    31  H    4.826042   6.207060   7.169751   7.053032   5.878385
    32  H    3.656716   4.984624   5.773458   5.535838   4.365952
    33  C    6.102070   7.510169   8.200619   7.707004   6.337708
    34  H    6.283129   7.702662   8.540442   8.212673   6.903412
    35  H    6.871957   8.271209   8.913756   8.348254   6.954915
    36  H    6.467318   7.836336   8.438348   7.863036   6.493738
    37  C    4.879915   5.030611   4.226872   2.811326   2.412041
    38  C    5.082291   4.828840   3.726626   2.416227   2.783320
    39  C    4.273818   3.723089   2.485471   1.415716   2.434983
    40  H    6.144430   5.800735   4.610431   3.400728   3.867587
    41  H    4.910193   4.076727   2.717783   2.160717   3.416194
    42  H    6.281717   6.944640   6.515339   5.182711   4.175203
    43  H    5.851819   6.092328   5.309046   3.893239   3.404648
                    6          7          8          9         10
     6  C    0.000000
     7  H    3.364361   0.000000
     8  H    3.863485   2.439848   0.000000
     9  C    2.470537   5.297733   4.626814   0.000000
    10  O    1.358886   4.496124   5.221865   2.813066   0.000000
    11  C    2.825771   6.107238   5.885227   1.471040   2.408904
    12  C    2.381421   5.721658   6.068874   2.455888   1.361038
    13  C    4.223502   7.502170   7.141236   2.531771   3.662800
    14  C    3.620820   6.834954   7.421396   3.779026   2.342112
    15  C    5.008508   8.369667   8.296224   3.783549   4.115699
    16  C    4.768301   8.082209   8.417676   4.266220   3.605269
    17  H    6.073871   9.428980   9.253204   4.665505   5.199066
    18  H    5.723504   8.977119   9.444901   5.348490   4.482127
    19  B    2.620177   2.744886   4.724679   5.089226   2.902877
    20  N    4.037242   6.865873   7.892035   4.886358   2.685352
    21  C    3.953322   2.788674   5.119976   6.386318   4.335484
    22  H    4.284877   3.621711   5.793738   6.634153   4.452866
    23  H    4.810781   3.465398   5.888258   7.275982   5.097586
    24  H    4.203082   2.181273   4.496033   6.513095   4.861942
    25  C    3.314073   4.179298   6.046540   5.586275   3.006711
    26  H    3.863135   4.264152   6.146785   6.072579   3.741571
    27  H    4.228552   4.896115   6.930814   6.490812   3.776923
    28  H    3.042697   4.770919   6.309519   5.015669   2.369149
    29  C    4.103204   6.539607   7.788568   5.328392   2.895625
    30  H    4.895410   7.376496   8.517126   5.820644   3.713452
    31  H    4.651980   6.659666   8.196840   6.192677   3.544005
    32  H    3.264323   5.599028   6.809275   4.686598   2.244715
    33  C    5.435276   8.185799   9.281496   6.141456   4.092527
    34  H    5.841370   8.256648   9.604910   6.893645   4.556541
    35  H    6.137937   8.972223   9.997441   6.629462   4.779652
    36  H    5.712985   8.554720   9.509919   6.181413   4.417833
    37  C    3.714180   6.088556   4.867210   1.377704   4.189592
    38  C    4.200189   5.791373   4.081351   2.421030   5.022356
    39  C    3.724440   4.594863   2.719441   2.818778   4.831092
    40  H    5.284523   6.713475   4.785327   3.391895   6.080031
    41  H    4.594337   4.764202   2.500408   3.903321   5.789868
    42  H    4.898729   8.025888   7.341288   2.773263   4.556762
    43  H    4.606845   7.157290   5.928684   2.142403   4.857961
                   11         12         13         14         15
    11  C    0.000000
    12  C    1.391438   0.000000
    13  C    1.401510   2.397014   0.000000
    14  C    2.458662   1.411660   2.815439   0.000000
    15  C    2.412280   2.756633   1.379279   2.426371   0.000000
    16  C    2.796660   2.391966   2.409172   1.391839   1.394430
    17  H    3.394729   3.840362   2.137712   3.400533   1.083757
    18  H    3.878750   3.381980   3.381129   2.144999   2.141948
    19  B    5.208439   4.256986   6.535903   4.936029   6.995357
    20  N    3.726636   2.434632   4.221048   1.406750   3.732878
    21  C    6.607689   5.678581   7.946993   6.307954   8.411369
    22  H    6.717347   5.715716   7.998489   6.205423   8.363779
    23  H    7.435697   6.433311   8.752947   6.944301   9.140121
    24  H    6.955061   6.197522   8.332505   6.993221   8.940237
    25  C    5.341540   4.168445   6.512004   4.454624   6.700774
    26  H    5.929989   4.859416   7.090370   5.188788   7.318619
    27  H    6.130102   4.859765   7.235690   4.910728   7.279128
    28  H    4.553966   3.319662   5.619379   3.466426   5.707426
    29  C    4.370280   3.061326   5.043772   2.431285   4.704993
    30  H    4.779803   3.627169   5.248270   2.847442   4.765635
    31  H    5.312187   3.949628   6.041494   3.333429   5.677836
    32  H    3.971347   2.726093   4.874164   2.634150   4.834316
    33  C    4.864364   3.708145   5.054935   2.428212   4.222724
    34  H    5.718470   4.459490   6.050778   3.327264   5.291394
    35  H    5.273619   4.234610   5.266022   2.859178   4.261740
    36  H    4.876408   3.881844   4.910873   2.640481   4.010363
    37  C    2.514494   3.742194   3.015570   4.966563   4.392834
    38  C    3.797586   4.874116   4.422038   6.193495   5.797873
    39  C    4.288504   5.059544   5.228771   6.460681   6.555316
    40  H    4.665363   5.840412   5.065096   7.109176   6.438456
    41  H    5.372949   6.113008   6.294457   7.519822   7.630601
    42  H    2.157929   3.383533   1.082317   3.897652   2.132455
    43  H    2.765079   4.136786   2.723391   5.165263   4.061433
                   16         17         18         19         20
    16  C    0.000000
    17  H    2.145977   0.000000
    18  H    1.082273   2.455242   0.000000
    19  B    6.312238   8.074625   7.014165   0.000000
    20  N    2.463083   4.605515   2.711263   4.542622   0.000000
    21  C    7.692449   9.489218   8.346390   1.576355   5.788680
    22  H    7.570891   9.421821   8.155821   2.149188   5.595427
    23  H    8.335722  10.210514   8.916852   2.237789   6.273304
    24  H    8.352023  10.021110   9.083739   2.285523   6.631078
    25  C    5.807904   7.735989   6.339582   1.573745   3.749341
    26  H    6.482247   8.333599   7.010335   2.142736   4.539651
    27  H    6.244921   8.285374   6.635256   2.234743   3.943442
    28  H    4.784358   6.720962   5.303575   2.273436   2.795699
    29  C    3.525387   5.594178   3.766289   4.137031   1.459359
    30  H    3.610141   5.532974   3.680811   5.089452   2.126452
    31  H    4.430769   6.550139   4.549221   4.047891   2.088225
    32  H    3.873573   5.813036   4.364091   3.386887   2.105726
    33  C    2.841390   4.852119   2.521074   5.733996   1.449590
    34  H    3.915372   5.939861   3.601649   5.644207   2.072408
    35  H    2.905165   4.729135   2.287238   6.550275   2.140727
    36  H    2.753220   4.536539   2.368531   6.214789   2.094709
    37  C    5.195875   5.058702   6.256727   6.316898   6.171894
    38  C    6.551496   6.458994   7.622783   6.630579   7.297950
    39  C    7.078364   7.350328   8.160139   5.844498   7.370147
    40  H    7.332929   6.970074   8.382857   7.700392   8.274552
    41  H    8.161703   8.406101   9.243237   6.449683   8.383425
    42  H    3.386297   2.454637   4.266290   7.358599   5.303284
    43  H    5.100829   4.524110   6.101745   7.226843   6.483988
                   21         22         23         24         25
    21  C    0.000000
    22  H    1.101085   0.000000
    23  H    1.095019   1.747941   0.000000
    24  H    1.092178   1.757903   1.784262   0.000000
    25  C    2.688450   3.043033   2.832478   3.643136   0.000000
    26  H    3.092418   3.708036   2.953312   3.946081   1.101993
    27  H    2.800719   2.870017   2.716690   3.877124   1.095196
    28  H    3.619898   3.855759   3.896611   4.518637   1.089363
    29  C    5.085256   4.651237   5.618135   5.928744   3.580141
    30  H    5.907685   5.332930   6.480019   6.697886   4.646205
    31  H    4.813659   4.340577   5.158694   5.768499   3.253737
    32  H    4.318415   3.898022   5.003934   5.056353   3.227284
    33  C    6.912890   6.686716   7.248641   7.836869   4.679354
    34  H    6.682800   6.434902   6.869441   7.682415   4.418156
    35  H    7.650238   7.301085   8.037465   8.552154   5.605391
    36  H    7.513722   7.419321   7.818518   8.420165   5.093626
    37  C    7.537780   7.819892   8.448506   7.533664   6.904614
    38  C    7.689050   8.071420   8.603888   7.492184   7.444294
    39  C    6.749211   7.223078   7.643370   6.428508   6.844153
    40  H    8.724936   9.109944   9.640826   8.476696   8.521996
    41  H    7.187268   7.719150   8.050210   6.721252   7.557915
    42  H    8.749496   8.841496   9.589093   9.042798   7.443891
    43  H    8.492445   8.719890   9.399110   8.541052   7.690389
                   26         27         28         29         30
    26  H    0.000000
    27  H    1.750553   0.000000
    28  H    1.765007   1.784914   0.000000
    29  C    4.578985   3.514870   2.951919   0.000000
    30  H    5.663721   4.497724   4.053016   1.101433   0.000000
    31  H    4.212878   2.881501   2.816217   1.092495   1.781267
    32  H    4.291004   3.330505   2.762847   1.087373   1.781784
    33  C    5.333953   4.676598   3.740940   2.408278   2.710050
    34  H    5.016416   4.199584   3.625021   2.606272   3.008659
    35  H    6.340027   5.526287   4.709760   2.745143   2.585012
    36  H    5.577125   5.231576   4.077158   3.355038   3.727285
    37  C    7.325483   7.835206   6.362224   6.642065   7.050439
    38  C    7.772359   8.415058   7.072883   7.649554   8.114426
    39  C    7.107984   7.819660   6.662189   7.570564   8.140734
    40  H    8.826013   9.497960   8.140471   8.657507   9.072901
    41  H    7.748479   8.528341   7.486065   8.526247   9.109834
    42  H    7.974386   8.218151   6.587533   6.098633   6.264516
    43  H    8.133607   8.591045   7.045521   7.061685   7.362389
                   31         32         33         34         35
    31  H    0.000000
    32  H    1.763552   0.000000
    33  C    2.630406   3.354097   0.000000
    34  H    2.351423   3.591307   1.092160   0.000000
    35  H    3.069366   3.751527   1.102808   1.773074   0.000000
    36  H    3.604978   4.180057   1.091392   1.768504   1.783729
    37  C    7.541342   6.004307   7.362621   8.173692   7.784052
    38  C    8.479662   6.891667   8.558204   9.295609   9.038602
    39  C    8.280359   6.705803   8.712339   9.320081   9.288370
    40  H    9.516514   7.918260   9.495786  10.274191   9.934258
    41  H    9.189741   7.620639   9.738985  10.308103  10.334745
    42  H    7.107149   5.873998   6.105971   7.114201   6.276886
    43  H    8.023588   6.539260   7.550366   8.450887   7.868838
                   36         37         38         39         40
    36  H    0.000000
    37  C    7.326099   0.000000
    38  C    8.551561   1.407909   0.000000
    39  C    8.788128   2.418715   1.369819   0.000000
    40  H    9.445718   2.153880   1.084369   2.129077   0.000000
    41  H    9.822984   3.405469   2.137668   1.084546   2.464022
    42  H    5.904528   2.724005   4.084541   5.118687   4.522240
    43  H    7.437914   1.082440   2.148296   3.383188   2.452873
                   41         42         43
    41  H    0.000000
    42  H    6.127324   0.000000
    43  H    4.278406   2.072513   0.000000
 Symmetry turned off by external request.
 Stoichiometry    C20H20BNO
 Framework group  C1[X(C20H20BNO)]
 Deg. of freedom   123
 Full point group                 C1      NOp   1
 Rotational constants (GHZ):           0.3396692           0.2668013           0.1542127
 General basis read from cards:  (5D, 7F)
 ======================================================================================================
                                       Pseudopotential Parameters
 ======================================================================================================
  Center     Atomic      Valence      Angular      Power
  Number     Number     Electrons     Momentum     of R      Exponent        Coefficient   SO-Coeffient
 ======================================================================================================
    1          6
                                   No pseudopotential on this center.
    2          6
                                   No pseudopotential on this center.
    3          6
                                   No pseudopotential on this center.
    4          6
                                   No pseudopotential on this center.
    5          6
                                   No pseudopotential on this center.
    6          6
                                   No pseudopotential on this center.
    7          1
                                   No pseudopotential on this center.
    8          1
                                   No pseudopotential on this center.
    9          6
                                   No pseudopotential on this center.
   10          8
                                   No pseudopotential on this center.
   11          6
                                   No pseudopotential on this center.
   12          6
                                   No pseudopotential on this center.
   13          6
                                   No pseudopotential on this center.
   14          6
                                   No pseudopotential on this center.
   15          6
                                   No pseudopotential on this center.
   16          6
                                   No pseudopotential on this center.
   17          1
                                   No pseudopotential on this center.
   18          1
                                   No pseudopotential on this center.
   19          5
                                   No pseudopotential on this center.
   20          7
                                   No pseudopotential on this center.
   21          6
                                   No pseudopotential on this center.
   22          1
                                   No pseudopotential on this center.
   23          1
                                   No pseudopotential on this center.
   24          1
                                   No pseudopotential on this center.
   25          6
                                   No pseudopotential on this center.
   26          1
                                   No pseudopotential on this center.
   27          1
                                   No pseudopotential on this center.
   28          1
                                   No pseudopotential on this center.
   29          6
                                   No pseudopotential on this center.
   30          1
                                   No pseudopotential on this center.
   31          1
                                   No pseudopotential on this center.
   32          1
                                   No pseudopotential on this center.
   33          6
                                   No pseudopotential on this center.
   34          1
                                   No pseudopotential on this center.
   35          1
                                   No pseudopotential on this center.
   36          1
                                   No pseudopotential on this center.
   37          6
                                   No pseudopotential on this center.
   38          6
                                   No pseudopotential on this center.
   39          6
                                   No pseudopotential on this center.
   40          1
                                   No pseudopotential on this center.
   41          1
                                   No pseudopotential on this center.
   42          1
                                   No pseudopotential on this center.
   43          1
                                   No pseudopotential on this center.
 ======================================================================================================
   646 basis functions,  1008 primitive gaussians,   669 cartesian basis functions
    80 alpha electrons       80 beta electrons
       nuclear repulsion energy      1852.6533537210 Hartrees.
 NAtoms=   43 NActive=   43 NUniq=   43 SFac= 1.00D+00 NAtFMM=   60 NAOKFM=F Big=F
 Integral buffers will be    131072 words long.
 Raffenetti 2 integral format.
 Two-electron integral symmetry is turned off.
 Nuclear repulsion after empirical dispersion term =     1852.6181518658 Hartrees.
 ------------------------------------------------------------------------------
 Polarizable Continuum Model (PCM)
 =================================
 Model                : PCM.
 Atomic radii         : UFF (Universal Force Field).
 Polarization charges : Total charges.
 Charge compensation  : None.
 Solution method      : On-the-fly selection.
 Cavity type          : Scaled VdW (van der Waals Surface) (Alpha=1.100).
 Cavity algorithm     : GePol (No added spheres)
                        Default sphere list used, NSphG=   43.
                        Lebedev-Laikov grids with approx.  5.0 points / Ang**2.
                        Smoothing algorithm: York/Karplus (Gamma=1.0000).
                        Polarization charges: spherical gaussians, with
                                              point-specific exponents (IZeta= 3).
                        Self-potential: point-specific (ISelfS= 7).
                        Self-field    : sphere-specific E.n sum rule (ISelfD= 2).
 Solvent              : Toluene, Eps=   2.374100 Eps(inf)=   2.238315
 ------------------------------------------------------------------------------
 One-electron integrals computed using PRISM.
   1 Symmetry operations used in ECPInt.
 ECPInt:  NShTT=   28441 NPrTT=   97054 LenC2=   25380 LenP2D=   59167.
 LDataN:  DoStor=T MaxTD1= 4 Len=   56
 Number of processors reduced to  72 by ecpmxn.
 NBasis=   646 RedAO= T EigKep=  1.25D-06  NBF=   646
 NBsUse=   636 1.00D-06 EigRej=  5.26D-07 NBFU=   636
 ExpMin= 3.15D-02 ExpMax= 8.59D+03 ExpMxC= 1.30D+03 IAcc=3 IRadAn=         5 AccDes= 0.00D+00
 Harris functional with IExCor= 4639 and IRadAn=       5 diagonalized for initial guess.
 HarFok:  IExCor= 4639 AccDes= 0.00D+00 IRadAn=         5 IDoV= 1 UseB2=F ITyADJ=14
 ICtDFT=  3500011 ScaDFX=  1.000000  1.000000  1.000000  1.000000
 FoFCou: FMM=F IPFlag=           0 FMFlag=      100000 FMFlg1=           0
         NFxFlg=           0 DoJE=T BraDBF=F KetDBF=T FulRan=T
         wScrn=  0.000000 ICntrl=       500 IOpCl=  0 I1Cent=   200000004 NGrid=           0
         NMat0=    1 NMatS0=      1 NMatT0=    0 NMatD0=    1 NMtDS0=    0 NMtDT0=    0
 Symmetry not used in FoFCou.
 Requested convergence on RMS density matrix=1.00D-08 within 300 cycles.
 Requested convergence on MAX density matrix=1.00D-06.
 Requested convergence on             energy=1.00D-06.
 No special actions if energy rises.
 Inv3:  Mode=1 IEnd=    25631787.
 Iteration    1 A*A^-1 deviation from unit magnitude is 5.55D-15 for   2921.
 Iteration    1 A*A^-1 deviation from orthogonality  is 2.22D-15 for   2915   1731.
 Iteration    1 A^-1*A deviation from unit magnitude is 5.55D-15 for   2921.
 Iteration    1 A^-1*A deviation from orthogonality  is 2.03D-15 for   2371   2211.
 Error on total polarization charges =  0.01205
 SCF Done:  E(RwB97XD) =  -928.951225667     A.U. after   17 cycles
            NFock= 17  Conv=0.48D-08     -V/T= 2.0043

 **********************************************************************

            Population analysis using the SCF Density.

 **********************************************************************

 Alpha  occ. eigenvalues --  -19.30897 -14.44515 -10.36710 -10.36070 -10.33276
 Alpha  occ. eigenvalues --  -10.31631 -10.30973 -10.30967 -10.30834 -10.30655
 Alpha  occ. eigenvalues --  -10.30259 -10.29714 -10.29333 -10.29240 -10.29217
 Alpha  occ. eigenvalues --  -10.29210 -10.29179 -10.29143 -10.28359 -10.27088
 Alpha  occ. eigenvalues --  -10.24703 -10.23902  -6.84217  -1.21635  -1.05055
 Alpha  occ. eigenvalues --   -0.99278  -0.97126  -0.93130  -0.90073  -0.87690
 Alpha  occ. eigenvalues --   -0.85484  -0.84829  -0.81560  -0.80974  -0.80081
 Alpha  occ. eigenvalues --   -0.76771  -0.76226  -0.75273  -0.72906  -0.72551
 Alpha  occ. eigenvalues --   -0.67902  -0.66172  -0.65296  -0.61978  -0.60734
 Alpha  occ. eigenvalues --   -0.59063  -0.58331  -0.57027  -0.56756  -0.55780
 Alpha  occ. eigenvalues --   -0.55037  -0.53900  -0.53351  -0.52738  -0.51727
 Alpha  occ. eigenvalues --   -0.50952  -0.49474  -0.49100  -0.48919  -0.48389
 Alpha  occ. eigenvalues --   -0.47843  -0.47597  -0.47273  -0.46828  -0.46064
 Alpha  occ. eigenvalues --   -0.45895  -0.45644  -0.45155  -0.44811  -0.42431
 Alpha  occ. eigenvalues --   -0.41991  -0.41742  -0.39148  -0.38426  -0.38169
 Alpha  occ. eigenvalues --   -0.34932  -0.34367  -0.32888  -0.28518  -0.26312
 Alpha virt. eigenvalues --   -0.00052   0.02054   0.03779   0.04061   0.04463
 Alpha virt. eigenvalues --    0.04508   0.05572   0.05653   0.05809   0.06658
 Alpha virt. eigenvalues --    0.06883   0.07170   0.07252   0.07466   0.08257
 Alpha virt. eigenvalues --    0.08864   0.08965   0.09276   0.09297   0.09619
 Alpha virt. eigenvalues --    0.09945   0.10448   0.11174   0.11581   0.11823
 Alpha virt. eigenvalues --    0.11934   0.12589   0.12974   0.13229   0.13418
 Alpha virt. eigenvalues --    0.13646   0.14115   0.14531   0.15085   0.15504
 Alpha virt. eigenvalues --    0.15791   0.16184   0.16305   0.16785   0.16895
 Alpha virt. eigenvalues --    0.17166   0.17599   0.17727   0.17902   0.18142
 Alpha virt. eigenvalues --    0.18413   0.18652   0.18894   0.18993   0.19188
 Alpha virt. eigenvalues --    0.19334   0.19872   0.20065   0.20208   0.20388
 Alpha virt. eigenvalues --    0.20571   0.20809   0.21054   0.21250   0.21707
 Alpha virt. eigenvalues --    0.21726   0.22196   0.22281   0.22650   0.22991
 Alpha virt. eigenvalues --    0.23230   0.23467   0.23773   0.23813   0.24192
 Alpha virt. eigenvalues --    0.24424   0.24558   0.24936   0.25502   0.25512
 Alpha virt. eigenvalues --    0.25677   0.26011   0.26287   0.26502   0.26704
 Alpha virt. eigenvalues --    0.26835   0.27562   0.27785   0.27998   0.28227
 Alpha virt. eigenvalues --    0.28414   0.28606   0.29132   0.29833   0.29958
 Alpha virt. eigenvalues --    0.30258   0.30780   0.30935   0.30985   0.31408
 Alpha virt. eigenvalues --    0.31629   0.32055   0.32216   0.32343   0.32429
 Alpha virt. eigenvalues --    0.33100   0.33534   0.33574   0.34322   0.34752
 Alpha virt. eigenvalues --    0.35026   0.35714   0.35788   0.36134   0.36582
 Alpha virt. eigenvalues --    0.36782   0.36932   0.37186   0.37828   0.38083
 Alpha virt. eigenvalues --    0.38237   0.38439   0.38787   0.38885   0.38974
 Alpha virt. eigenvalues --    0.39437   0.39731   0.40005   0.40393   0.40756
 Alpha virt. eigenvalues --    0.41108   0.41544   0.41857   0.42215   0.42501
 Alpha virt. eigenvalues --    0.42774   0.43579   0.43906   0.44492   0.44809
 Alpha virt. eigenvalues --    0.45145   0.45332   0.45643   0.46532   0.46772
 Alpha virt. eigenvalues --    0.47205   0.47522   0.47974   0.49144   0.50358
 Alpha virt. eigenvalues --    0.50827   0.51702   0.52286   0.53871   0.54484
 Alpha virt. eigenvalues --    0.54989   0.55479   0.57423   0.57699   0.57925
 Alpha virt. eigenvalues --    0.59392   0.59660   0.60856   0.60979   0.61825
 Alpha virt. eigenvalues --    0.62540   0.63025   0.63364   0.63823   0.64388
 Alpha virt. eigenvalues --    0.64819   0.65157   0.65603   0.66324   0.67164
 Alpha virt. eigenvalues --    0.67211   0.67522   0.67904   0.68078   0.69240
 Alpha virt. eigenvalues --    0.69302   0.69993   0.70637   0.70685   0.70926
 Alpha virt. eigenvalues --    0.71355   0.71500   0.72250   0.72331   0.73090
 Alpha virt. eigenvalues --    0.73462   0.73635   0.74640   0.75097   0.75189
 Alpha virt. eigenvalues --    0.75932   0.76000   0.76574   0.76798   0.77143
 Alpha virt. eigenvalues --    0.77902   0.78035   0.79118   0.79176   0.79842
 Alpha virt. eigenvalues --    0.80417   0.81057   0.81973   0.82158   0.82704
 Alpha virt. eigenvalues --    0.82995   0.83953   0.84560   0.85435   0.85970
 Alpha virt. eigenvalues --    0.86346   0.86917   0.87303   0.87742   0.88405
 Alpha virt. eigenvalues --    0.88877   0.89445   0.90017   0.90507   0.90963
 Alpha virt. eigenvalues --    0.91105   0.93053   0.93604   0.93922   0.94818
 Alpha virt. eigenvalues --    0.94963   0.96246   0.96991   0.97452   0.98949
 Alpha virt. eigenvalues --    0.99714   1.00545   1.00811   1.01467   1.01484
 Alpha virt. eigenvalues --    1.02286   1.02513   1.02616   1.03420   1.03879
 Alpha virt. eigenvalues --    1.05097   1.05363   1.05947   1.06390   1.07107
 Alpha virt. eigenvalues --    1.08166   1.08402   1.09049   1.09706   1.10221
 Alpha virt. eigenvalues --    1.11310   1.11821   1.12251   1.12924   1.13442
 Alpha virt. eigenvalues --    1.14820   1.15229   1.16236   1.16792   1.17828
 Alpha virt. eigenvalues --    1.19134   1.20026   1.20549   1.21130   1.21603
 Alpha virt. eigenvalues --    1.22133   1.23030   1.23380   1.24576   1.25035
 Alpha virt. eigenvalues --    1.26034   1.26639   1.27737   1.28346   1.30529
 Alpha virt. eigenvalues --    1.32930   1.34576   1.35028   1.38676   1.40625
 Alpha virt. eigenvalues --    1.40896   1.42631   1.42933   1.45402   1.46213
 Alpha virt. eigenvalues --    1.47062   1.47644   1.49995   1.50989   1.53420
 Alpha virt. eigenvalues --    1.54099   1.54909   1.55797   1.56061   1.56806
 Alpha virt. eigenvalues --    1.57228   1.57961   1.58605   1.58851   1.59164
 Alpha virt. eigenvalues --    1.59378   1.61173   1.61749   1.62898   1.63004
 Alpha virt. eigenvalues --    1.64249   1.64475   1.65053   1.65490   1.66038
 Alpha virt. eigenvalues --    1.66522   1.67368   1.67987   1.68720   1.69990
 Alpha virt. eigenvalues --    1.70893   1.71057   1.72457   1.72891   1.73531
 Alpha virt. eigenvalues --    1.74090   1.74312   1.75439   1.76595   1.77550
 Alpha virt. eigenvalues --    1.78151   1.78389   1.80191   1.80507   1.81578
 Alpha virt. eigenvalues --    1.82201   1.82671   1.83174   1.83482   1.84109
 Alpha virt. eigenvalues --    1.84295   1.85529   1.86270   1.86504   1.87262
 Alpha virt. eigenvalues --    1.88497   1.90392   1.90531   1.91629   1.92698
 Alpha virt. eigenvalues --    1.93182   1.93676   1.95768   1.96710   1.98222
 Alpha virt. eigenvalues --    1.98559   1.99136   1.99735   2.00261   2.00742
 Alpha virt. eigenvalues --    2.00895   2.01754   2.02863   2.03246   2.04139
 Alpha virt. eigenvalues --    2.04848   2.05007   2.05882   2.06682   2.07543
 Alpha virt. eigenvalues --    2.08930   2.10001   2.11159   2.11837   2.12988
 Alpha virt. eigenvalues --    2.13036   2.14443   2.15228   2.16316   2.17183
 Alpha virt. eigenvalues --    2.17632   2.19527   2.20390   2.22097   2.22858
 Alpha virt. eigenvalues --    2.23847   2.24366   2.26142   2.26446   2.27557
 Alpha virt. eigenvalues --    2.28216   2.30787   2.31750   2.32405   2.32768
 Alpha virt. eigenvalues --    2.34817   2.37787   2.39198   2.40520   2.41552
 Alpha virt. eigenvalues --    2.42157   2.44003   2.45087   2.45622   2.46665
 Alpha virt. eigenvalues --    2.47401   2.49813   2.51036   2.53243   2.54157
 Alpha virt. eigenvalues --    2.54416   2.56503   2.57034   2.58670   2.59213
 Alpha virt. eigenvalues --    2.60476   2.61289   2.61720   2.62808   2.64293
 Alpha virt. eigenvalues --    2.65673   2.66355   2.67434   2.67753   2.68438
 Alpha virt. eigenvalues --    2.69062   2.69751   2.71775   2.73063   2.73312
 Alpha virt. eigenvalues --    2.75296   2.75417   2.76370   2.76913   2.77912
 Alpha virt. eigenvalues --    2.78986   2.79034   2.80327   2.80630   2.81033
 Alpha virt. eigenvalues --    2.82091   2.82815   2.83633   2.84310   2.84811
 Alpha virt. eigenvalues --    2.85613   2.85942   2.86485   2.87178   2.87794
 Alpha virt. eigenvalues --    2.88471   2.89021   2.89897   2.90243   2.91666
 Alpha virt. eigenvalues --    2.92345   2.93179   2.93795   2.94400   2.95055
 Alpha virt. eigenvalues --    2.95637   2.96986   2.98495   2.99101   3.00576
 Alpha virt. eigenvalues --    3.01992   3.03461   3.04736   3.06076   3.06700
 Alpha virt. eigenvalues --    3.07251   3.11900   3.12726   3.13092   3.16779
 Alpha virt. eigenvalues --    3.18504   3.19257   3.21210   3.22298   3.23401
 Alpha virt. eigenvalues --    3.26844   3.28471   3.29767   3.33121   3.35415
 Alpha virt. eigenvalues --    3.36646   3.37684   3.38480   3.42921   3.47497
 Alpha virt. eigenvalues --    3.48371   3.50635   3.53680   3.54993   3.57097
 Alpha virt. eigenvalues --    3.58662   3.61766   3.64830   3.65895   3.66652
 Alpha virt. eigenvalues --    3.68615   3.71015   3.74156   3.75621   3.77703
 Alpha virt. eigenvalues --    3.81370   3.82786   3.85724   3.87003   3.89833
 Alpha virt. eigenvalues --    3.90901   3.92624   3.94225   3.94749   3.95777
 Alpha virt. eigenvalues --    3.99625   4.02090   4.08253   4.11520   4.15023
 Alpha virt. eigenvalues --    4.16516   4.17431   4.23350   4.23676   4.28418
 Alpha virt. eigenvalues --    4.34898   4.40532   4.47522   4.50821   4.73700
 Alpha virt. eigenvalues --    4.92870   4.94679   4.97436   4.99713   5.14889
 Alpha virt. eigenvalues --    5.18388   5.61100   6.16293  14.82883  23.64715
 Alpha virt. eigenvalues --   23.82897  23.94833  24.04944  24.08373  24.08483
 Alpha virt. eigenvalues --   24.09551  24.09930  24.11591  24.11914  24.13935
 Alpha virt. eigenvalues --   24.16413  24.18297  24.19957  24.22005  24.22615
 Alpha virt. eigenvalues --   24.25004  24.32994  24.33078  24.33433  35.75119
 Alpha virt. eigenvalues --   50.17740
          Condensed to atoms (all electrons):
               1          2          3          4          5          6
     1  C    9.845859  -0.157307  -2.196783   0.321457   0.277154  -0.980694
     2  C   -0.157307   9.354322   1.367188  -1.181742  -0.311757  -1.725466
     3  C   -2.196783   1.367188   8.149821  -1.065509  -0.636024   0.217551
     4  C    0.321457  -1.181742  -1.065509  11.204693   1.368230  -0.260087
     5  C    0.277154  -0.311757  -0.636024   1.368230   6.499819   0.393153
     6  C   -0.980694  -1.725466   0.217551  -0.260087   0.393153  10.635721
     7  H   -0.194485   0.430597   0.055976  -0.001721  -0.005484   0.005880
     8  H    0.013214  -0.073768   0.354439   0.001056   0.019973   0.004915
     9  C   -0.322509  -0.666438   0.101385  -1.709241  -0.032517   0.166027
    10  O   -0.187296   0.041055  -0.041734   0.042937  -0.196831  -0.040959
    11  C   -0.598544  -0.130335   0.285079  -0.579064  -0.390077   0.366219
    12  C   -0.117947   0.139079   0.264945  -0.348864  -1.030215  -1.521289
    13  C    0.382449   0.002656  -0.047993  -0.161333  -0.557915  -0.850827
    14  C    0.038276   0.002292   0.026550  -0.031125  -0.120259   0.256481
    15  C   -0.109370  -0.014897   0.021440   0.020540  -0.272008   0.664651
    16  C   -0.059530   0.023726   0.008854  -0.117932   0.081375   0.118965
    17  H   -0.000696  -0.000030   0.000156   0.001885  -0.001826   0.008881
    18  H   -0.000313   0.000531   0.000058  -0.001989  -0.004045  -0.012190
    19  B    0.282291  -0.228439   0.012368   0.035211   0.081280   0.295955
    20  N   -0.047083  -0.008280  -0.004259   0.016217  -0.038362  -0.159849
    21  C   -0.186081   0.158482  -0.005762  -0.014106  -0.016976  -0.088010
    22  H   -0.061044   0.028786   0.012595   0.004720   0.001277  -0.004097
    23  H    0.057934  -0.037112  -0.013246  -0.001356  -0.000913   0.005247
    24  H    0.011408   0.006418  -0.014346  -0.002868  -0.000319   0.004439
    25  C   -0.094995  -0.153912  -0.017879   0.012604  -0.005535   0.124806
    26  H   -0.018416  -0.019467  -0.002128   0.002532   0.005882   0.040082
    27  H    0.002194   0.030563   0.004162   0.000308  -0.001037  -0.022002
    28  H    0.091674   0.065998   0.003784   0.012216  -0.036241  -0.214103
    29  C    0.051516   0.020839   0.006628  -0.011085  -0.001382  -0.047509
    30  H    0.003319  -0.001314  -0.000273   0.000651   0.000470   0.009953
    31  H   -0.002261   0.002170   0.000444  -0.000196   0.001962   0.006248
    32  H   -0.003044  -0.002524  -0.006090   0.005011  -0.000079  -0.063077
    33  C   -0.011657  -0.002404  -0.000540   0.001156  -0.010119  -0.004906
    34  H   -0.002049  -0.000151   0.000169  -0.000466  -0.000696   0.000630
    35  H    0.000759   0.000070  -0.000032   0.000130   0.000493   0.000333
    36  H   -0.000412  -0.000420  -0.000085   0.000140   0.000747  -0.000391
    37  C    0.604703   0.143276  -0.828036   1.685125   1.292165  -0.616590
    38  C    0.094771  -0.194290  -0.564970   0.129675   0.711622  -0.565826
    39  C   -1.015222  -0.853266   0.827441  -3.371475  -1.125958   0.178012
    40  H   -0.000110  -0.004257  -0.010274  -0.046756   0.003492  -0.006191
    41  H    0.004424   0.041642   0.080423  -0.088029  -0.002192  -0.008519
    42  H    0.003980  -0.000632  -0.001518  -0.019819   0.000528  -0.032804
    43  H    0.005739   0.001613  -0.015182   0.029110   0.015658   0.013941
               7          8          9         10         11         12
     1  C   -0.194485   0.013214  -0.322509  -0.187296  -0.598544  -0.117947
     2  C    0.430597  -0.073768  -0.666438   0.041055  -0.130335   0.139079
     3  C    0.055976   0.354439   0.101385  -0.041734   0.285079   0.264945
     4  C   -0.001721   0.001056  -1.709241   0.042937  -0.579064  -0.348864
     5  C   -0.005484   0.019973  -0.032517  -0.196831  -0.390077  -1.030215
     6  C    0.005880   0.004915   0.166027  -0.040959   0.366219  -1.521289
     7  H    0.516218  -0.011762  -0.001127  -0.002795  -0.003946  -0.001090
     8  H   -0.011762   0.466390  -0.004729   0.000550   0.002848  -0.006212
     9  C   -0.001127  -0.004729  10.895167   0.020640   2.346685  -0.539091
    10  O   -0.002795   0.000550   0.020640   8.618434  -0.336811   0.060876
    11  C   -0.003946   0.002848   2.346685  -0.336811  10.253284   0.643831
    12  C   -0.001090  -0.006212  -0.539091   0.060876   0.643831   9.266526
    13  C   -0.002498   0.002550  -1.366784   0.006844  -1.727056   0.500379
    14  C   -0.001790   0.001114  -0.895881  -0.209852  -1.658049   0.180502
    15  C   -0.000223   0.000975  -0.767497   0.045055  -1.302050   0.826578
    16  C    0.000657   0.000045  -0.019374   0.026961   0.810952  -0.575045
    17  H   -0.000006   0.000006   0.004196   0.001772   0.034057   0.025436
    18  H    0.000020  -0.000009  -0.003205  -0.006458   0.048355   0.016739
    19  B   -0.023247   0.003251  -0.001207  -0.025727  -0.004509  -0.111156
    20  N    0.000660  -0.000182   0.012364  -0.016510   0.168597   0.005452
    21  C    0.004396   0.000245   0.004031   0.008655  -0.007312  -0.043566
    22  H    0.003949  -0.000495   0.001212   0.001781  -0.000327  -0.005618
    23  H   -0.003426  -0.000135  -0.000550   0.000857  -0.000068   0.003797
    24  H   -0.003534   0.001290   0.000138   0.000459  -0.000252  -0.001438
    25  C    0.004400  -0.001062   0.009935  -0.021137   0.015713   0.048827
    26  H    0.001492  -0.000315   0.002561  -0.003014   0.000212  -0.005984
    27  H   -0.000261  -0.000035   0.001360   0.001856  -0.000317  -0.005166
    28  H    0.001920  -0.000280   0.009132  -0.004034  -0.007555   0.076251
    29  C   -0.000611   0.000115  -0.045230  -0.003101  -0.046875  -0.156636
    30  H   -0.000141   0.000006  -0.000469   0.003799  -0.020833   0.022823
    31  H    0.000224  -0.000002   0.000429  -0.003189  -0.000317  -0.026499
    32  H    0.000133   0.000095   0.035516   0.011798   0.024475   0.021755
    33  C    0.000079  -0.000037  -0.023854  -0.019844  -0.027702   0.087545
    34  H    0.000008   0.000000  -0.002342  -0.002635   0.004227   0.000321
    35  H   -0.000005   0.000001   0.002355   0.001419  -0.001458  -0.008579
    36  H   -0.000016   0.000000   0.001082   0.000788  -0.009005   0.012398
    37  C   -0.000883   0.012055  -2.131544   0.138765  -1.998124  -1.467345
    38  C    0.001518   0.012597  -1.442459   0.043652  -1.039464  -0.603369
    39  C    0.020979  -0.001789   1.502291  -0.005614   0.137435   0.569736
    40  H   -0.000269   0.000733   0.045666   0.000601  -0.002734  -0.004293
    41  H    0.001377   0.000994  -0.013556   0.000021  -0.001034   0.001837
    42  H   -0.000013  -0.000081  -0.039784  -0.002883  -0.044662  -0.003039
    43  H   -0.000009   0.000236  -0.043830  -0.000782  -0.029768   0.000748
              13         14         15         16         17         18
     1  C    0.382449   0.038276  -0.109370  -0.059530  -0.000696  -0.000313
     2  C    0.002656   0.002292  -0.014897   0.023726  -0.000030   0.000531
     3  C   -0.047993   0.026550   0.021440   0.008854   0.000156   0.000058
     4  C   -0.161333  -0.031125   0.020540  -0.117932   0.001885  -0.001989
     5  C   -0.557915  -0.120259  -0.272008   0.081375  -0.001826  -0.004045
     6  C   -0.850827   0.256481   0.664651   0.118965   0.008881  -0.012190
     7  H   -0.002498  -0.001790  -0.000223   0.000657  -0.000006   0.000020
     8  H    0.002550   0.001114   0.000975   0.000045   0.000006  -0.000009
     9  C   -1.366784  -0.895881  -0.767497  -0.019374   0.004196  -0.003205
    10  O    0.006844  -0.209852   0.045055   0.026961   0.001772  -0.006458
    11  C   -1.727056  -1.658049  -1.302050   0.810952   0.034057   0.048355
    12  C    0.500379   0.180502   0.826578  -0.575045   0.025436   0.016739
    13  C   11.390935   2.404838  -0.513610  -2.871036  -0.073592  -0.050465
    14  C    2.404838  11.160896  -1.889987  -1.921003  -0.035166  -0.118899
    15  C   -0.513610  -1.889987  10.182776   0.781893   0.371938  -0.018813
    16  C   -2.871036  -1.921003   0.781893  10.182056  -0.020275   0.515368
    17  H   -0.073592  -0.035166   0.371938  -0.020275   0.457783  -0.008412
    18  H   -0.050465  -0.118899  -0.018813   0.515368  -0.008412   0.480479
    19  B   -0.025780  -0.020836   0.017712   0.020598   0.000058   0.000214
    20  N    0.078685  -0.461045  -0.069790  -0.344712  -0.007725  -0.012283
    21  C    0.000907   0.017965  -0.000144  -0.001622   0.000015  -0.000183
    22  H    0.000001   0.003044  -0.000166  -0.000075   0.000001  -0.000010
    23  H    0.000037  -0.001336  -0.000161  -0.000383  -0.000001   0.000003
    24  H   -0.000161   0.002201   0.000146   0.000132   0.000002  -0.000015
    25  C   -0.006841  -0.026501  -0.002140   0.003078   0.000006   0.000391
    26  H   -0.002532   0.003084   0.000521   0.002089   0.000002   0.000072
    27  H    0.000544   0.020354  -0.000266  -0.000532   0.000037  -0.000149
    28  H    0.036015  -0.052243  -0.022492  -0.045960  -0.000409  -0.000051
    29  C    0.017414  -0.106777   0.014648  -0.001520  -0.000312  -0.005178
    30  H    0.014220   0.052275   0.001972  -0.048740  -0.000179  -0.002942
    31  H   -0.001586  -0.018591   0.012490   0.033310  -0.000094  -0.000187
    32  H   -0.004700  -0.040554  -0.024012   0.012465  -0.000015   0.002341
    33  C   -0.018955   0.053200  -0.244420  -0.179384  -0.001050   0.008574
    34  H   -0.009276   0.016788  -0.012439   0.038609   0.000066   0.006028
    35  H    0.010339  -0.013797   0.037269  -0.000162   0.001112  -0.008516
    36  H    0.004331   0.002735  -0.021189  -0.019930  -0.000393  -0.006782
    37  C    0.452118  -0.241991  -0.778689  -0.077436   0.006257  -0.007715
    38  C   -0.647756  -0.111998  -0.254217  -0.080753   0.000851  -0.002274
    39  C   -0.091460  -0.054798  -0.149888  -0.037979  -0.001634   0.000456
    40  H    0.004200  -0.000313  -0.001419  -0.000523  -0.000077   0.000024
    41  H   -0.006376  -0.000036  -0.002520  -0.000616   0.000014  -0.000007
    42  H    0.517929   0.060513  -0.096330  -0.042773  -0.015243   0.002085
    43  H    0.056508  -0.011922   0.028819   0.005320   0.002394  -0.000757
              19         20         21         22         23         24
     1  C    0.282291  -0.047083  -0.186081  -0.061044   0.057934   0.011408
     2  C   -0.228439  -0.008280   0.158482   0.028786  -0.037112   0.006418
     3  C    0.012368  -0.004259  -0.005762   0.012595  -0.013246  -0.014346
     4  C    0.035211   0.016217  -0.014106   0.004720  -0.001356  -0.002868
     5  C    0.081280  -0.038362  -0.016976   0.001277  -0.000913  -0.000319
     6  C    0.295955  -0.159849  -0.088010  -0.004097   0.005247   0.004439
     7  H   -0.023247   0.000660   0.004396   0.003949  -0.003426  -0.003534
     8  H    0.003251  -0.000182   0.000245  -0.000495  -0.000135   0.001290
     9  C   -0.001207   0.012364   0.004031   0.001212  -0.000550   0.000138
    10  O   -0.025727  -0.016510   0.008655   0.001781   0.000857   0.000459
    11  C   -0.004509   0.168597  -0.007312  -0.000327  -0.000068  -0.000252
    12  C   -0.111156   0.005452  -0.043566  -0.005618   0.003797  -0.001438
    13  C   -0.025780   0.078685   0.000907   0.000001   0.000037  -0.000161
    14  C   -0.020836  -0.461045   0.017965   0.003044  -0.001336   0.002201
    15  C    0.017712  -0.069790  -0.000144  -0.000166  -0.000161   0.000146
    16  C    0.020598  -0.344712  -0.001622  -0.000075  -0.000383   0.000132
    17  H    0.000058  -0.007725   0.000015   0.000001  -0.000001   0.000002
    18  H    0.000214  -0.012283  -0.000183  -0.000010   0.000003  -0.000015
    19  B    4.832335   0.008009   0.250416  -0.116104  -0.146347  -0.071764
    20  N    0.008009   7.436639  -0.009784  -0.001269   0.000046  -0.000843
    21  C    0.250416  -0.009784   5.410402   0.422374   0.434147   0.389680
    22  H   -0.116104  -0.001269   0.422374   0.540232  -0.009519  -0.024849
    23  H   -0.146347   0.000046   0.434147  -0.009519   0.547803  -0.014766
    24  H   -0.071764  -0.000843   0.389680  -0.024849  -0.014766   0.587985
    25  C    0.252544   0.002810  -0.087213   0.007676   0.013873   0.005403
    26  H   -0.075962  -0.000939   0.001022   0.004230   0.000957  -0.000218
    27  H   -0.206654  -0.005848   0.019405   0.010136   0.007639  -0.001288
    28  H   -0.122464   0.049676  -0.004595  -0.009230   0.002239  -0.007381
    29  C    0.031326   0.277147   0.002480  -0.001313  -0.000884  -0.001113
    30  H   -0.005797  -0.096204   0.001248   0.000372  -0.000046  -0.000001
    31  H    0.017204  -0.050099  -0.002271  -0.001754   0.000179   0.000091
    32  H   -0.045896  -0.050355   0.009232   0.001221   0.001686   0.002334
    33  C   -0.002653   0.309627   0.000944   0.000371   0.000371  -0.000035
    34  H    0.000209  -0.087979   0.000197   0.000158   0.000079  -0.000026
    35  H   -0.001263  -0.039524   0.000066   0.000022  -0.000007   0.000018
    36  H    0.000701  -0.052537   0.000149   0.000027   0.000013   0.000013
    37  C   -0.013036   0.000448   0.006626   0.000587  -0.000048  -0.000333
    38  C    0.003870   0.003405   0.000039   0.000267  -0.000023  -0.000045
    39  C   -0.021934   0.012983  -0.017455   0.000238   0.000364  -0.003547
    40  H    0.000057  -0.000022  -0.000029  -0.000002  -0.000001   0.000011
    41  H    0.000047   0.000048   0.000013   0.000030   0.000012  -0.000043
    42  H   -0.000262   0.004203  -0.000045  -0.000007  -0.000000   0.000001
    43  H   -0.000004  -0.001097   0.000083   0.000008   0.000003  -0.000009
              25         26         27         28         29         30
     1  C   -0.094995  -0.018416   0.002194   0.091674   0.051516   0.003319
     2  C   -0.153912  -0.019467   0.030563   0.065998   0.020839  -0.001314
     3  C   -0.017879  -0.002128   0.004162   0.003784   0.006628  -0.000273
     4  C    0.012604   0.002532   0.000308   0.012216  -0.011085   0.000651
     5  C   -0.005535   0.005882  -0.001037  -0.036241  -0.001382   0.000470
     6  C    0.124806   0.040082  -0.022002  -0.214103  -0.047509   0.009953
     7  H    0.004400   0.001492  -0.000261   0.001920  -0.000611  -0.000141
     8  H   -0.001062  -0.000315  -0.000035  -0.000280   0.000115   0.000006
     9  C    0.009935   0.002561   0.001360   0.009132  -0.045230  -0.000469
    10  O   -0.021137  -0.003014   0.001856  -0.004034  -0.003101   0.003799
    11  C    0.015713   0.000212  -0.000317  -0.007555  -0.046875  -0.020833
    12  C    0.048827  -0.005984  -0.005166   0.076251  -0.156636   0.022823
    13  C   -0.006841  -0.002532   0.000544   0.036015   0.017414   0.014220
    14  C   -0.026501   0.003084   0.020354  -0.052243  -0.106777   0.052275
    15  C   -0.002140   0.000521  -0.000266  -0.022492   0.014648   0.001972
    16  C    0.003078   0.002089  -0.000532  -0.045960  -0.001520  -0.048740
    17  H    0.000006   0.000002   0.000037  -0.000409  -0.000312  -0.000179
    18  H    0.000391   0.000072  -0.000149  -0.000051  -0.005178  -0.002942
    19  B    0.252544  -0.075962  -0.206654  -0.122464   0.031326  -0.005797
    20  N    0.002810  -0.000939  -0.005848   0.049676   0.277147  -0.096204
    21  C   -0.087213   0.001022   0.019405  -0.004595   0.002480   0.001248
    22  H    0.007676   0.004230   0.010136  -0.009230  -0.001313   0.000372
    23  H    0.013873   0.000957   0.007639   0.002239  -0.000884  -0.000046
    24  H    0.005403  -0.000218  -0.001288  -0.007381  -0.001113  -0.000001
    25  C    5.480396   0.384648   0.468649   0.302454  -0.072534  -0.007880
    26  H    0.384648   0.524914  -0.000859  -0.030431  -0.002358  -0.000076
    27  H    0.468649  -0.000859   0.559667  -0.017611  -0.016172   0.001051
    28  H    0.302454  -0.030431  -0.017611   0.632859   0.037235   0.009363
    29  C   -0.072534  -0.002358  -0.016172   0.037235   5.602616   0.433982
    30  H   -0.007880  -0.000076   0.001051   0.009363   0.433982   0.587211
    31  H    0.005449   0.000001  -0.006039  -0.004970   0.390117  -0.059238
    32  H    0.019796   0.001397   0.004402  -0.020638   0.312085  -0.059274
    33  C    0.027067   0.000263   0.002709  -0.021761  -0.217297  -0.027833
    34  H    0.004964   0.000082   0.000757  -0.008507  -0.011732  -0.009340
    35  H   -0.000897   0.000074   0.000259   0.000807  -0.004829   0.017785
    36  H    0.001115  -0.000192   0.000501  -0.002731   0.010688   0.001195
    37  C   -0.002438  -0.001126   0.000970   0.014935  -0.001650  -0.000326
    38  C    0.000126   0.000398   0.000126   0.002255  -0.002827  -0.000111
    39  C    0.002795   0.000611  -0.000703   0.005891  -0.001660  -0.000667
    40  H   -0.000029  -0.000001   0.000003   0.000037  -0.000053  -0.000000
    41  H    0.000064   0.000001  -0.000009  -0.000022   0.000006  -0.000003
    42  H   -0.000261  -0.000038  -0.000043   0.000703   0.000388   0.000032
    43  H    0.000130   0.000010   0.000027  -0.000225   0.000075   0.000053
              31         32         33         34         35         36
     1  C   -0.002261  -0.003044  -0.011657  -0.002049   0.000759  -0.000412
     2  C    0.002170  -0.002524  -0.002404  -0.000151   0.000070  -0.000420
     3  C    0.000444  -0.006090  -0.000540   0.000169  -0.000032  -0.000085
     4  C   -0.000196   0.005011   0.001156  -0.000466   0.000130   0.000140
     5  C    0.001962  -0.000079  -0.010119  -0.000696   0.000493   0.000747
     6  C    0.006248  -0.063077  -0.004906   0.000630   0.000333  -0.000391
     7  H    0.000224   0.000133   0.000079   0.000008  -0.000005  -0.000016
     8  H   -0.000002   0.000095  -0.000037   0.000000   0.000001   0.000000
     9  C    0.000429   0.035516  -0.023854  -0.002342   0.002355   0.001082
    10  O   -0.003189   0.011798  -0.019844  -0.002635   0.001419   0.000788
    11  C   -0.000317   0.024475  -0.027702   0.004227  -0.001458  -0.009005
    12  C   -0.026499   0.021755   0.087545   0.000321  -0.008579   0.012398
    13  C   -0.001586  -0.004700  -0.018955  -0.009276   0.010339   0.004331
    14  C   -0.018591  -0.040554   0.053200   0.016788  -0.013797   0.002735
    15  C    0.012490  -0.024012  -0.244420  -0.012439   0.037269  -0.021189
    16  C    0.033310   0.012465  -0.179384   0.038609  -0.000162  -0.019930
    17  H   -0.000094  -0.000015  -0.001050   0.000066   0.001112  -0.000393
    18  H   -0.000187   0.002341   0.008574   0.006028  -0.008516  -0.006782
    19  B    0.017204  -0.045896  -0.002653   0.000209  -0.001263   0.000701
    20  N   -0.050099  -0.050355   0.309627  -0.087979  -0.039524  -0.052537
    21  C   -0.002271   0.009232   0.000944   0.000197   0.000066   0.000149
    22  H   -0.001754   0.001221   0.000371   0.000158   0.000022   0.000027
    23  H    0.000179   0.001686   0.000371   0.000079  -0.000007   0.000013
    24  H    0.000091   0.002334  -0.000035  -0.000026   0.000018   0.000013
    25  C    0.005449   0.019796   0.027067   0.004964  -0.000897   0.001115
    26  H    0.000001   0.001397   0.000263   0.000082   0.000074  -0.000192
    27  H   -0.006039   0.004402   0.002709   0.000757   0.000259   0.000501
    28  H   -0.004970  -0.020638  -0.021761  -0.008507   0.000807  -0.002731
    29  C    0.390117   0.312085  -0.217297  -0.011732  -0.004829   0.010688
    30  H   -0.059238  -0.059274  -0.027833  -0.009340   0.017785   0.001195
    31  H    0.564086  -0.009456  -0.017375   0.001008   0.002720  -0.003915
    32  H   -0.009456   0.622097   0.027889   0.008221  -0.004751  -0.001812
    33  C   -0.017375   0.027889   5.456663   0.424261   0.360907   0.445080
    34  H    0.001008   0.008221   0.424261   0.521895  -0.062472  -0.000891
    35  H    0.002720  -0.004751   0.360907  -0.062472   0.608363  -0.047155
    36  H   -0.003915  -0.001812   0.445080  -0.000891  -0.047155   0.512009
    37  C    0.000098   0.014437  -0.011279  -0.000697   0.000918  -0.000197
    38  C    0.000050   0.004905  -0.001739  -0.000165   0.000160  -0.000016
    39  C    0.000397   0.001244   0.001481  -0.000042  -0.000020   0.000003
    40  H   -0.000002   0.000097  -0.000011  -0.000001   0.000001  -0.000003
    41  H    0.000002  -0.000038   0.000010  -0.000000  -0.000000   0.000002
    42  H    0.000103  -0.000097  -0.000519  -0.000131  -0.000094   0.000084
    43  H   -0.000048  -0.000213   0.000045   0.000018  -0.000007   0.000039
              37         38         39         40         41         42
     1  C    0.604703   0.094771  -1.015222  -0.000110   0.004424   0.003980
     2  C    0.143276  -0.194290  -0.853266  -0.004257   0.041642  -0.000632
     3  C   -0.828036  -0.564970   0.827441  -0.010274   0.080423  -0.001518
     4  C    1.685125   0.129675  -3.371475  -0.046756  -0.088029  -0.019819
     5  C    1.292165   0.711622  -1.125958   0.003492  -0.002192   0.000528
     6  C   -0.616590  -0.565826   0.178012  -0.006191  -0.008519  -0.032804
     7  H   -0.000883   0.001518   0.020979  -0.000269   0.001377  -0.000013
     8  H    0.012055   0.012597  -0.001789   0.000733   0.000994  -0.000081
     9  C   -2.131544  -1.442459   1.502291   0.045666  -0.013556  -0.039784
    10  O    0.138765   0.043652  -0.005614   0.000601   0.000021  -0.002883
    11  C   -1.998124  -1.039464   0.137435  -0.002734  -0.001034  -0.044662
    12  C   -1.467345  -0.603369   0.569736  -0.004293   0.001837  -0.003039
    13  C    0.452118  -0.647756  -0.091460   0.004200  -0.006376   0.517929
    14  C   -0.241991  -0.111998  -0.054798  -0.000313  -0.000036   0.060513
    15  C   -0.778689  -0.254217  -0.149888  -0.001419  -0.002520  -0.096330
    16  C   -0.077436  -0.080753  -0.037979  -0.000523  -0.000616  -0.042773
    17  H    0.006257   0.000851  -0.001634  -0.000077   0.000014  -0.015243
    18  H   -0.007715  -0.002274   0.000456   0.000024  -0.000007   0.002085
    19  B   -0.013036   0.003870  -0.021934   0.000057   0.000047  -0.000262
    20  N    0.000448   0.003405   0.012983  -0.000022   0.000048   0.004203
    21  C    0.006626   0.000039  -0.017455  -0.000029   0.000013  -0.000045
    22  H    0.000587   0.000267   0.000238  -0.000002   0.000030  -0.000007
    23  H   -0.000048  -0.000023   0.000364  -0.000001   0.000012  -0.000000
    24  H   -0.000333  -0.000045  -0.003547   0.000011  -0.000043   0.000001
    25  C   -0.002438   0.000126   0.002795  -0.000029   0.000064  -0.000261
    26  H   -0.001126   0.000398   0.000611  -0.000001   0.000001  -0.000038
    27  H    0.000970   0.000126  -0.000703   0.000003  -0.000009  -0.000043
    28  H    0.014935   0.002255   0.005891   0.000037  -0.000022   0.000703
    29  C   -0.001650  -0.002827  -0.001660  -0.000053   0.000006   0.000388
    30  H   -0.000326  -0.000111  -0.000667  -0.000000  -0.000003   0.000032
    31  H    0.000098   0.000050   0.000397  -0.000002   0.000002   0.000103
    32  H    0.014437   0.004905   0.001244   0.000097  -0.000038  -0.000097
    33  C   -0.011279  -0.001739   0.001481  -0.000011   0.000010  -0.000519
    34  H   -0.000697  -0.000165  -0.000042  -0.000001  -0.000000  -0.000131
    35  H    0.000918   0.000160  -0.000020   0.000001  -0.000000  -0.000094
    36  H   -0.000197  -0.000016   0.000003  -0.000003   0.000002   0.000084
    37  C   11.992875   0.812602  -2.878089  -0.055779  -0.030391   0.059945
    38  C    0.812602   8.663654   1.262613   0.393821  -0.022178  -0.002408
    39  C   -2.878089   1.262613  10.999471  -0.006746   0.410852   0.016518
    40  H   -0.055779   0.393821  -0.006746   0.460150  -0.009159   0.001334
    41  H   -0.030391  -0.022178   0.410852  -0.009159   0.463933  -0.000213
    42  H    0.059945  -0.002408   0.016518   0.001334  -0.000213   0.508345
    43  H    0.487850  -0.098109  -0.061862  -0.016665   0.002121   0.004134
              43
     1  C    0.005739
     2  C    0.001613
     3  C   -0.015182
     4  C    0.029110
     5  C    0.015658
     6  C    0.013941
     7  H   -0.000009
     8  H    0.000236
     9  C   -0.043830
    10  O   -0.000782
    11  C   -0.029768
    12  C    0.000748
    13  C    0.056508
    14  C   -0.011922
    15  C    0.028819
    16  C    0.005320
    17  H    0.002394
    18  H   -0.000757
    19  B   -0.000004
    20  N   -0.001097
    21  C    0.000083
    22  H    0.000008
    23  H    0.000003
    24  H   -0.000009
    25  C    0.000130
    26  H    0.000010
    27  H    0.000027
    28  H   -0.000225
    29  C    0.000075
    30  H    0.000053
    31  H   -0.000048
    32  H   -0.000213
    33  C    0.000045
    34  H    0.000018
    35  H   -0.000007
    36  H    0.000039
    37  C    0.487850
    38  C   -0.098109
    39  C   -0.061862
    40  H   -0.016665
    41  H    0.002121
    42  H    0.004134
    43  H    0.521068
 Mulliken charges:
               1
     1  C    0.274727
     2  C   -0.093095
     3  C   -0.328791
     4  C    0.119159
     5  C    0.043487
     6  C   -0.292706
     7  H    0.208859
     8  H    0.201201
     9  C    0.911048
    10  O    0.051631
    11  C    0.826277
    12  C   -0.193937
    13  C   -0.845366
    14  C   -0.258358
    15  C   -0.460686
    16  C   -0.199160
    17  H    0.250207
    18  H    0.190110
    19  B    0.125385
    20  N    0.179560
    21  C   -0.658065
    22  H    0.190567
    23  H    0.153043
    24  H    0.137024
    25  C   -0.698464
    26  H    0.186918
    27  H    0.147316
    28  H    0.278493
    29  C   -0.448666
    30  H    0.179910
    31  H    0.169308
    32  H    0.191990
    33  C   -0.362869
    34  H    0.183347
    35  H    0.147190
    36  H    0.174233
    37  C   -0.583015
    38  C   -0.507982
    39  C   -0.250004
    40  H    0.255489
    41  H    0.177071
    42  H    0.122872
    43  H    0.104737
 Sum of Mulliken charges =  -0.00000
 Mulliken charges with hydrogens summed into heavy atoms:
               1
     1  C    0.274727
     2  C    0.115765
     3  C   -0.127590
     4  C    0.119159
     5  C    0.043487
     6  C   -0.292706
     9  C    0.911048
    10  O    0.051631
    11  C    0.826277
    12  C   -0.193937
    13  C   -0.722493
    14  C   -0.258358
    15  C   -0.210479
    16  C   -0.009050
    19  B    0.125385
    20  N    0.179560
    21  C   -0.177429
    25  C   -0.085736
    29  C    0.092543
    33  C    0.141900
    37  C   -0.478278
    38  C   -0.252492
    39  C   -0.072933
 Electronic spatial extent (au):  <R**2>=          18353.8724
 Charge=             -0.0000 electrons
 Dipole moment (field-independent basis, Debye):
    X=             -1.2520    Y=              0.6879    Z=             -0.6860  Tot=              1.5847
 Quadrupole moment (field-independent basis, Debye-Ang):
   XX=           -113.4642   YY=           -125.7795   ZZ=           -132.9241
   XY=              0.4908   XZ=             10.2382   YZ=             -8.0173
 Traceless Quadrupole moment (field-independent basis, Debye-Ang):
   XX=             10.5917   YY=             -1.7235   ZZ=             -8.8682
   XY=              0.4908   XZ=             10.2382   YZ=             -8.0173
 Octapole moment (field-independent basis, Debye-Ang**2):
  XXX=           1116.3775  YYY=          -1149.5750  ZZZ=            133.6930  XYY=            447.5790
  XXY=           -377.1879  XXZ=            -11.4762  XZZ=            405.1653  YZZ=           -394.7529
  YYZ=            -14.8851  XYZ=             46.0842
 Hexadecapole moment (field-independent basis, Debye-Ang**3):
 XXXX=         -11052.5332 YYYY=         -10099.3480 ZZZZ=          -2561.5273 XXXY=           3157.7176
 XXXZ=           -868.4066 YYYX=           3522.7181 YYYZ=            674.0874 ZZZX=          -1204.4804
 ZZZY=           1074.2114 XXYY=          -3832.8469 XXZZ=          -2238.8416 YYZZ=          -2094.5101
 XXYZ=            165.2842 YYXZ=           -195.4534 ZZXY=            994.6341
 N-N= 1.852618151866D+03 E-N=-5.863671792181D+03  KE= 9.249848903011D+02
 Breneman (CHELPG) radii used.
 Generate Potential Derived Charges using the Breneman model, NDens= 1.
 Grid spacing= 0.300 Box extension= 2.800
 NStep X,Y,Z=   51     48     45   Total possible points=      110160
 Number of Points to Fit=   22926

 **********************************************************************

            Electrostatic Properties Using The SCF Density.

 **********************************************************************

       Atomic Center    1 is at  -2.163343  1.659987  1.174706
       Atomic Center    2 is at  -0.935102  1.829042  1.874281
       Atomic Center    3 is at  -0.102638  2.895248  1.676599
       Atomic Center    4 is at  -0.458489  3.917373  0.763241
       Atomic Center    5 is at  -1.684160  3.808004  0.057539
       Atomic Center    6 is at  -2.497925  2.670494  0.285533
       Atomic Center    7 is at  -0.638884  1.064130  2.583899
       Atomic Center    8 is at   0.832202  2.976339  2.220276
       Atomic Center    9 is at  -2.083277  4.817084 -0.865019
       Atomic Center   10 is at  -3.690392  2.564777 -0.357442
       Atomic Center   11 is at  -3.362328  4.623025 -1.565254
       Atomic Center   12 is at  -4.113434  3.492467 -1.259024
       Atomic Center   13 is at  -3.851512  5.499111 -2.543724
       Atomic Center   14 is at  -5.351822  3.212216 -1.875982
       Atomic Center   15 is at  -5.047558  5.236591 -3.178521
       Atomic Center   16 is at  -5.795478  4.108159 -2.844317
       Atomic Center   17 is at  -5.417269  5.915128 -3.938410
       Atomic Center   18 is at  -6.737028  3.930825 -3.347657
       Atomic Center   19 is at  -3.022839  0.365843  1.416187
       Atomic Center   20 is at  -6.042203  2.033540 -1.539764
       Atomic Center   21 is at  -3.066547 -0.281546  2.852805
       Atomic Center   22 is at  -4.036036  0.019048  3.279564
       Atomic Center   23 is at  -3.088348 -1.375848  2.819726
       Atomic Center   24 is at  -2.300918  0.043529  3.560612
       Atomic Center   25 is at  -3.808838 -0.373247  0.270488
       Atomic Center   26 is at  -3.103386 -1.122997 -0.122704
       Atomic Center   27 is at  -4.664065 -0.942820  0.649471
       Atomic Center   28 is at  -4.125100  0.245435 -0.568513
       Atomic Center   29 is at  -6.510158  1.936341 -0.160888
       Atomic Center   30 is at  -7.385061  2.581862  0.015187
       Atomic Center   31 is at  -6.793902  0.901835  0.046072
       Atomic Center   32 is at  -5.720583  2.213535  0.533457
       Atomic Center   33 is at  -7.048036  1.583660 -2.481687
       Atomic Center   34 is at  -7.338027  0.564633 -2.216540
       Atomic Center   35 is at  -7.959290  2.204771 -2.476870
       Atomic Center   36 is at  -6.638605  1.568823 -3.493261
       Atomic Center   37 is at  -1.259915  5.905003 -1.056263
       Atomic Center   38 is at  -0.043410  6.017831 -0.356554
       Atomic Center   39 is at   0.354498  5.052756  0.530409
       Atomic Center   40 is at   0.583533  6.885797 -0.528115
       Atomic Center   41 is at   1.293207  5.145722  1.065594
       Atomic Center   42 is at  -3.285746  6.381335 -2.813909
       Atomic Center   43 is at  -1.535887  6.691017 -1.747420
   22926 points will be used for fitting atomic charges
 Fitting point charges to electrostatic potential
 Charges from ESP fit, RMS=   0.00441 RRMS=   0.41477:
 ESP charges:
               1
     1  C   -0.399931
     2  C    0.018349
     3  C   -0.383017
     4  C    0.314468
     5  C   -0.117963
     6  C    0.302568
     7  H    0.090820
     8  H    0.157301
     9  C    0.121498
    10  O   -0.199787
    11  C   -0.023740
    12  C    0.121781
    13  C   -0.180688
    14  C    0.155510
    15  C   -0.142030
    16  C   -0.165257
    17  H    0.116545
    18  H    0.130681
    19  B    0.631717
    20  N   -0.213119
    21  C   -0.475955
    22  H    0.079557
    23  H    0.083212
    24  H    0.086847
    25  C   -0.335551
    26  H    0.041679
    27  H    0.071215
    28  H   -0.005518
    29  C    0.080677
    30  H   -0.012988
    31  H    0.045886
    32  H   -0.002557
    33  C   -0.138265
    34  H    0.087625
    35  H    0.062779
    36  H    0.063164
    37  C   -0.252585
    38  C    0.000527
    39  C   -0.320414
    40  H    0.095755
    41  H    0.146342
    42  H    0.128539
    43  H    0.134321
 Sum of ESP charges =  -0.00000
 ESP charges with hydrogens summed into heavy atoms:
               1
     1  C   -0.399931
     2  C    0.109169
     3  C   -0.225716
     4  C    0.314468
     5  C   -0.117963
     6  C    0.302568
     9  C    0.121498
    10  O   -0.199787
    11  C   -0.023740
    12  C    0.121781
    13  C   -0.052149
    14  C    0.155510
    15  C   -0.025484
    16  C   -0.034576
    19  B    0.631717
    20  N   -0.213119
    21  C   -0.226339
    25  C   -0.228175
    29  C    0.111017
    33  C    0.075303
    37  C   -0.118264
    38  C    0.096281
    39  C   -0.174072
 Charge=  -0.00000 Dipole=    -1.1778     0.8356    -0.6810 Tot=     1.5966
 -----------------------------------------------------------------

              Electrostatic Properties (Atomic Units)

 -----------------------------------------------------------------
    Center     Electric         -------- Electric Field --------
               Potential          X             Y             Z
 -----------------------------------------------------------------
    1 Atom    -14.795524
    2 Atom    -14.774068
    3 Atom    -14.782742
    4 Atom    -14.759520
    5 Atom    -14.758050
    6 Atom    -14.699673
    7 Atom     -1.110737
    8 Atom     -1.107138
    9 Atom    -14.750318
   10 Atom    -22.308946
   11 Atom    -14.755760
   12 Atom    -14.704134
   13 Atom    -14.772192
   14 Atom    -14.730061
   15 Atom    -14.771852
   16 Atom    -14.770888
   17 Atom     -1.101856
   18 Atom     -1.095811
   19 Atom    -11.472828
   20 Atom    -18.378651
   21 Atom    -14.811578
   22 Atom     -1.110167
   23 Atom     -1.124876
   24 Atom     -1.130266
   25 Atom    -14.820942
   26 Atom     -1.117251
   27 Atom     -1.132711
   28 Atom     -1.143710
   29 Atom    -14.752468
   30 Atom     -1.120147
   31 Atom     -1.115409
   32 Atom     -1.117270
   33 Atom    -14.746631
   34 Atom     -1.109443
   35 Atom     -1.113120
   36 Atom     -1.108869
   37 Atom    -14.772350
   38 Atom    -14.767755
   39 Atom    -14.773694
   40 Atom     -1.099859
   41 Atom     -1.101105
   42 Atom     -1.098968
   43 Atom     -1.098931
 -----------------------------------------------------------------
 Unable to Open any file for archive entry.
 1\1\GINC-IRENE4717\SP\RwB97XD\GenECP\C20H20B1N1O1\PENASFRA\10-Apr-2024
 \0\\# wb97xd/genecp scrf=(solvent=toluene,pcm) nosymm pop=(chelpg) scf
 cyc=300\\me_Bbenzoxanthene_chelpg\\0,1\C,0,-2.163343,1.659987,1.174706
 \C,0,-0.935102,1.829042,1.874281\C,0,-0.102638,2.895248,1.676599\C,0,-
 0.458489,3.917373,0.763241\C,0,-1.68416,3.808004,0.057539\C,0,-2.49792
 5,2.670494,0.285533\H,0,-0.638884,1.06413,2.583899\H,0,0.832202,2.9763
 39,2.220276\C,0,-2.083277,4.817084,-0.865019\O,0,-3.690392,2.564777,-0
 .357442\C,0,-3.362328,4.623025,-1.565254\C,0,-4.113434,3.492467,-1.259
 024\C,0,-3.851512,5.499111,-2.543724\C,0,-5.351822,3.212216,-1.875982\
 C,0,-5.047558,5.236591,-3.178521\C,0,-5.795478,4.108159,-2.844317\H,0,
 -5.417269,5.915128,-3.93841\H,0,-6.737028,3.930825,-3.347657\B,0,-3.02
 2839,0.365843,1.416187\N,0,-6.042203,2.03354,-1.539764\C,0,-3.066547,-
 0.281546,2.852805\H,0,-4.036036,0.019048,3.279564\H,0,-3.088348,-1.375
 848,2.819726\H,0,-2.300918,0.043529,3.560612\C,0,-3.808838,-0.373247,0
 .270488\H,0,-3.103386,-1.122997,-0.122704\H,0,-4.664065,-0.94282,0.649
 471\H,0,-4.1251,0.245435,-0.568513\C,0,-6.510158,1.936341,-0.160888\H,
 0,-7.385061,2.581862,0.015187\H,0,-6.793902,0.901835,0.046072\H,0,-5.7
 20583,2.213535,0.533457\C,0,-7.048036,1.58366,-2.481687\H,0,-7.338027,
 0.564633,-2.21654\H,0,-7.95929,2.204771,-2.47687\H,0,-6.638605,1.56882
 3,-3.493261\C,0,-1.259915,5.905003,-1.056263\C,0,-0.04341,6.017831,-0.
 356554\C,0,0.354498,5.052756,0.530409\H,0,0.583533,6.885797,-0.528115\
 H,0,1.293207,5.145722,1.065594\H,0,-3.285746,6.381335,-2.813909\H,0,-1
 .535887,6.691017,-1.74742\\Version=AS64L-G16RevC.02\HF=-928.9512257\RM
 SD=4.800e-09\Dipole=-0.4925898,0.2706355,-0.2699048\Quadrupole=7.87468
 72,-1.2813971,-6.5932901,0.3648901,7.6118303,-5.9606832\PG=C01 [X(C20H
 20B1N1O1)]\\@
 The archive entry for this job was punched.


 IT IS A PROFOUNDLY ERRONEOUS TRUISM ... THAT WE SHOULD CULTIVATE
 THE HABIT OF THINKING OF WHAT WE ARE DOING.
 THE PRECISE OPPOSITE IS THE CASE.
 CIVILIZATION ADVANCES BY EXTENDING THE NUMBER OF IMPORTANT OPERATIONS
 WHICH WE CAN PERFORM WITHOUT THINKING ABOUT THEM.

                                    -- ALFRED NORTH WHITEHEAD
 Job cpu time:       0 days  2 hours 48 minutes  8.7 seconds.
 Elapsed time:       0 days  0 hours  1 minutes 42.3 seconds.
 File lengths (MBytes):  RWF=    363 Int=      0 D2E=      0 Chk=     26 Scr=      1
 Normal termination of Gaussian 16 at Wed Apr 10 15:15:39 2024.
