 Entering Gaussian System, Link 0=/ccc/products/gaussian-16-C.02/system/default/g16/g16
 Input=me_benzopiperidine_chelpg.gjf
 Output=me_benzopiperidine_chelpg.log
 Initial command:
 /ccc/products/gaussian-16-C.02/system/default/g16/l1.exe "/ccc/scratch/cont003/gen7343/penasfra/flp/b-n_flp/me_benzopiperidine/Reactant/Gau-2366270.inp" -scrdir="/ccc/scratch/cont003/gen7343/penasfra/flp/b-n_flp/me_benzopiperidine/Reactant/"
 Entering Link 1 = /ccc/products/gaussian-16-C.02/system/default/g16/l1.exe PID=   2366319.
  
 Copyright (c) 1988-2021, Gaussian, Inc.  All Rights Reserved.
  
 This is part of the Gaussian(R) 16 program.  It is based on
 the Gaussian(R) 09 system (copyright 2009, Gaussian, Inc.),
 the Gaussian(R) 03 system (copyright 2003, Gaussian, Inc.),
 the Gaussian(R) 98 system (copyright 1998, Gaussian, Inc.),
 the Gaussian(R) 94 system (copyright 1995, Gaussian, Inc.),
 the Gaussian 92(TM) system (copyright 1992, Gaussian, Inc.),
 the Gaussian 90(TM) system (copyright 1990, Gaussian, Inc.),
 the Gaussian 88(TM) system (copyright 1988, Gaussian, Inc.),
 the Gaussian 86(TM) system (copyright 1986, Carnegie Mellon
 University), and the Gaussian 82(TM) system (copyright 1983,
 Carnegie Mellon University). Gaussian is a federally registered
 trademark of Gaussian, Inc.
  
 This software contains proprietary and confidential information,
 including trade secrets, belonging to Gaussian, Inc.
  
 This software is provided under written license and may be
 used, copied, transmitted, or stored only in accord with that
 written license.
  
 The following legend is applicable only to US Government
 contracts under FAR:
  
                    RESTRICTED RIGHTS LEGEND
  
 Use, reproduction and disclosure by the US Government is
 subject to restrictions as set forth in subparagraphs (a)
 and (c) of the Commercial Computer Software - Restricted
 Rights clause in FAR 52.227-19.
  
 Gaussian, Inc.
 340 Quinnipiac St., Bldg. 40, Wallingford CT 06492
  
  
 ---------------------------------------------------------------
 Warning -- This program may not be used in any manner that
 competes with the business of Gaussian, Inc. or will provide
 assistance to any competitor of Gaussian, Inc.  The licensee
 of this program is prohibited from giving any competitor of
 Gaussian, Inc. access to this program.  By using this program,
 the user acknowledges that Gaussian, Inc. is engaged in the
 business of creating and licensing software in the field of
 computational chemistry and represents and warrants to the
 licensee that it is not a competitor of Gaussian, Inc. and that
 it will not use this program in any manner prohibited above.
 ---------------------------------------------------------------
  

 Cite this work as:
 Gaussian 16, Revision C.02,
 M. J. Frisch, G. W. Trucks, H. B. Schlegel, G. E. Scuseria, 
 M. A. Robb, J. R. Cheeseman, G. Scalmani, V. Barone, 
 G. A. Petersson, H. Nakatsuji, X. Li, M. Caricato, A. V. Marenich, 
 J. Bloino, B. G. Janesko, R. Gomperts, B. Mennucci, H. P. Hratchian, 
 J. V. Ortiz, A. F. Izmaylov, J. L. Sonnenberg, D. Williams-Young, 
 F. Ding, F. Lipparini, F. Egidi, J. Goings, B. Peng, A. Petrone, 
 T. Henderson, D. Ranasinghe, V. G. Zakrzewski, J. Gao, N. Rega, 
 G. Zheng, W. Liang, M. Hada, M. Ehara, K. Toyota, R. Fukuda, 
 J. Hasegawa, M. Ishida, T. Nakajima, Y. Honda, O. Kitao, H. Nakai, 
 T. Vreven, K. Throssell, J. A. Montgomery, Jr., J. E. Peralta, 
 F. Ogliaro, M. J. Bearpark, J. J. Heyd, E. N. Brothers, K. N. Kudin, 
 V. N. Staroverov, T. A. Keith, R. Kobayashi, J. Normand, 
 K. Raghavachari, A. P. Rendell, J. C. Burant, S. S. Iyengar, 
 J. Tomasi, M. Cossi, J. M. Millam, M. Klene, C. Adamo, R. Cammi, 
 J. W. Ochterski, R. L. Martin, K. Morokuma, O. Farkas, 
 J. B. Foresman, and D. J. Fox, Gaussian, Inc., Wallingford CT, 2019.
 
 ******************************************
 Gaussian 16:  AS64L-G16RevC.02  7-Dec-2021
                 9-Apr-2024 
 ******************************************
 %nprocshared=128
 Will use up to  128 processors via shared memory.
 %mem=30GB
 %chk=me_benzopiperidine_chelpg.chk
 ----------------------------------------------------------------------
 # wb97xd/genecp scrf=(solvent=toluene,pcm) nosymm pop=(chelpg) scfcyc=
 300
 ----------------------------------------------------------------------
 1/38=1,172=1/1;
 2/12=2,15=1,17=6,18=5,40=1/2;
 3/5=7,11=2,16=1,17=8,25=1,30=1,70=2201,72=13,74=-58/1,2,3;
 4//1;
 5/5=2,7=300,38=5,53=13/2;
 6/7=2,8=2,9=2,10=2,15=8,20=3,28=1/1,2;
 99/5=1,9=1/99;
 -------------------------
 me_benzopiperidine_chelpg
 -------------------------
 Symbolic Z-matrix:
 Charge =  0 Multiplicity = 1
 C                    -0.62008   0.95712   0.68186 
 C                     0.75752   1.09095   0.81317 
 C                     1.45936   2.19129   0.30457 
 C                     0.71021   3.23607  -0.29183 
 C                    -0.6786    3.10553  -0.41023 
 C                    -1.33149   1.97012   0.05642 
 H                    -1.12726   0.07828   1.06316 
 H                     1.31422   0.29359   1.29656 
 H                    -1.26721   3.89893  -0.85238 
 H                    -2.40853   1.89536  -0.05145 
 B                     3.02492   2.08004   0.28801 
 C                     3.89242   2.53341  -0.94728 
 H                     3.32509   2.93802  -1.78552 
 H                     4.62222   3.2901   -0.63075 
 H                     4.49473   1.68111  -1.28834 
 C                     3.77284   1.35908   1.47877 
 H                     3.9052    0.30287   1.20133 
 H                     4.7834    1.7522    1.62822 
 H                     3.23817   1.3744    2.43196 
 C                     0.65378   5.27949  -1.64317 
 C                     2.13358   5.13307   0.26547 
 C                     1.61501   6.2316   -2.34982 
 C                     3.13686   6.08404  -0.37397 
 C                     2.43654   7.03314  -1.34365 
 H                     1.04121   6.89741  -3.00103 
 H                     2.28475   5.64481  -2.98813 
 H                     3.65251   6.64209   0.41307 
 H                     3.88876   5.49833  -0.91255 
 H                     3.16468   7.66677  -1.85737 
 H                     1.77106   7.70071  -0.78138 
 N                     1.37702   4.39048  -0.74522 
 H                     2.64574   4.43114   0.92427 
 H                     1.43567   5.71065   0.89997 
 H                    -0.10505   5.87099  -1.09742 
 H                     0.12911   4.67398  -2.38481 
 
                          Input orientation:                          
 ---------------------------------------------------------------------
 Center     Atomic      Atomic             Coordinates (Angstroms)
 Number     Number       Type             X           Y           Z
 ---------------------------------------------------------------------
      1          6           0       -0.620078    0.957122    0.681860
      2          6           0        0.757522    1.090950    0.813170
      3          6           0        1.459358    2.191288    0.304566
      4          6           0        0.710206    3.236072   -0.291827
      5          6           0       -0.678600    3.105525   -0.410231
      6          6           0       -1.331492    1.970118    0.056418
      7          1           0       -1.127256    0.078277    1.063158
      8          1           0        1.314223    0.293590    1.296561
      9          1           0       -1.267210    3.898934   -0.852382
     10          1           0       -2.408532    1.895356   -0.051452
     11          5           0        3.024923    2.080039    0.288007
     12          6           0        3.892424    2.533408   -0.947280
     13          1           0        3.325085    2.938022   -1.785515
     14          1           0        4.622221    3.290100   -0.630748
     15          1           0        4.494732    1.681114   -1.288343
     16          6           0        3.772842    1.359080    1.478770
     17          1           0        3.905198    0.302868    1.201329
     18          1           0        4.783399    1.752199    1.628223
     19          1           0        3.238166    1.374400    2.431959
     20          6           0        0.653777    5.279488   -1.643168
     21          6           0        2.133578    5.133073    0.265471
     22          6           0        1.615012    6.231601   -2.349824
     23          6           0        3.136856    6.084041   -0.373965
     24          6           0        2.436538    7.033142   -1.343646
     25          1           0        1.041211    6.897409   -3.001032
     26          1           0        2.284751    5.644808   -2.988132
     27          1           0        3.652508    6.642089    0.413066
     28          1           0        3.888761    5.498325   -0.912546
     29          1           0        3.164676    7.666772   -1.857373
     30          1           0        1.771062    7.700713   -0.781376
     31          7           0        1.377019    4.390480   -0.745215
     32          1           0        2.645737    4.431141    0.924274
     33          1           0        1.435668    5.710647    0.899966
     34          1           0       -0.105045    5.870986   -1.097415
     35          1           0        0.129109    4.673976   -2.384812
 ---------------------------------------------------------------------
                    Distance matrix (angstroms):
                    1          2          3          4          5
     1  C    0.000000
     2  C    1.390300   0.000000
     3  C    2.447360   1.400713   0.000000
     4  C    2.812710   2.413463   1.417211   0.000000
     5  C    2.410752   2.760012   2.432618   1.399944   0.000000
     6  C    1.386884   2.389475   2.810576   2.427436   1.390388
     7  H    1.083968   2.154156   3.425033   3.896655   3.396527
     8  H    2.135334   1.085986   2.146247   3.397943   3.845967
     9  H    3.380375   3.841663   3.418882   2.159579   1.082339
    10  H    2.148627   3.379133   3.895497   3.403208   2.141471
    11  B    3.834331   2.528873   1.569600   2.651516   3.905796
    12  C    5.049896   3.873949   2.757531   3.324134   4.637887
    13  H    5.057293   4.093558   2.899481   3.026141   4.236621
    14  H    5.886206   4.675153   3.476478   3.927041   5.308616
    15  H    5.528756   4.327977   3.465708   4.211125   5.437223
    16  C    4.482676   3.099528   2.724616   4.004729   5.141374
    17  H    4.601741   3.267966   3.217522   4.587066   5.609208
    18  H    5.543042   4.160438   3.604735   4.741242   5.985000
    19  H    4.257113   2.975637   2.890893   4.156370   5.139639
    20  C    5.070632   4.856769   3.738931   2.450481   2.832221
    21  C    5.019419   4.304911   3.018311   2.436223   3.532120
    22  C    6.481270   6.096402   4.836749   3.745293   4.335323
    23  C    6.443184   5.656985   4.292776   3.742500   4.840514
    24  C    7.096731   6.540688   5.207210   4.301661   5.099169
    25  H    7.184051   6.952955   5.766229   4.566700   4.903915
    26  H    6.624294   6.125353   4.842513   3.943509   4.677070
    27  H    7.116607   6.273450   4.962994   4.555762   5.651867
    28  H    6.595020   5.675184   4.280170   3.950480   5.180598
    29  H    8.111194   7.494506   6.128867   5.301553   6.137586
    30  H    7.303056   6.874504   5.624073   4.614986   5.220569
    31  N    4.220532   3.701248   2.438291   1.408140   2.447222
    32  H    4.774214   3.838564   2.609305   2.579413   3.819604
    33  H    5.183595   4.670012   3.569447   2.840807   3.601861
    34  H    5.251394   5.219492   4.237108   2.873391   2.906710
    35  H    4.876552   4.843559   3.894362   2.604962   2.647905
                    6          7          8          9         10
     6  C    0.000000
     7  H    2.152742   0.000000
     8  H    3.368755   2.462043   0.000000
     9  H    2.133162   4.276248   4.927500   0.000000
    10  H    1.085007   2.487127   4.271030   2.440989   0.000000
    11  B    4.363951   4.674238   2.671156   4.799091   5.447180
    12  C    5.349206   5.938579   4.086408   5.338117   6.396223
    13  H    5.100320   6.009694   4.531642   4.783645   6.080172
    14  H    6.136876   6.800118   4.861733   5.924964   7.191132
    15  H    5.986384   6.301222   4.326961   6.189407   7.016470
    16  C    5.333918   5.081747   2.685754   6.106329   6.390505
    17  H    5.613686   5.039358   2.592741   6.625951   6.630887
    18  H    6.317432   6.169048   3.777926   6.882713   7.386858
    19  H    5.184578   4.755046   2.481700   6.120342   6.190632
    20  C    4.216849   6.127714   5.825579   2.494286   4.833596
    21  C    4.696243   6.067974   5.015485   3.786562   5.586950
    22  C    5.712453   7.551945   6.974709   3.998859   6.346215
    23  C    6.088984   7.504477   6.296187   4.939572   6.957041
    24  C    6.464707   8.177009   7.324742   4.876715   7.179228
    25  H    6.265454   8.229244   7.883798   4.351592   6.754353
    26  H    5.987474   7.683815   6.923587   4.497325   6.686508
    27  H    6.840670   8.145698   6.822872   5.773204   7.712552
    28  H    6.374808   7.644655   6.212702   5.398677   7.306077
    29  H    7.505331   9.194316   8.230145   5.903238   8.223822
    30  H    6.570195   8.360866   7.706620   4.867203   7.190547
    31  N    3.719785   5.304404   4.577914   2.691663   4.586649
    32  H    4.756906   5.762134   4.362437   4.330232   5.738282
    33  H    4.728668   6.190218   5.432913   3.695751   5.499047
    34  H    4.248797   6.266456   6.233201   2.302099   4.712295
    35  H    3.924768   5.881105   5.843354   2.213309   4.427744
                   11         12         13         14         15
    11  B    0.000000
    12  C    1.576082   0.000000
    13  H    2.264007   1.090057   0.000000
    14  H    2.204477   1.097898   1.772007   0.000000
    15  H    2.191885   1.097954   1.787476   1.742848   0.000000
    16  C    1.580216   2.697974   3.653642   2.983345   2.877802
    17  H    2.183433   3.097094   4.025147   3.576896   2.906128
    18  H    2.235150   2.835020   3.896981   2.737530   2.931679
    19  H    2.267141   3.631888   4.498839   3.868551   3.938741
    20  C    4.425861   4.302796   3.555083   4.553153   5.275143
    21  C    3.180569   3.364902   3.231792   3.223833   4.461548
    22  C    5.116783   4.564030   3.753726   4.544332   5.488758
    23  C    4.059898   3.675128   3.453308   3.174642   4.697412
    24  C    5.248020   4.745979   4.213641   4.392698   5.734407
    25  H    6.161164   5.602840   4.729726   5.608436   6.486127
    26  H    4.897808   4.053455   3.139311   4.070095   4.846047
    27  H    4.606713   4.334670   4.319847   3.642214   5.311818
    28  H    3.724543   2.965123   2.763143   2.343850   3.883236
    29  H    5.986132   5.263964   4.732016   4.773291   6.157999
    30  H    5.857280   5.588268   5.109453   5.254075   6.626535
    31  N    3.020145   3.133179   2.643259   3.428597   4.166028
    32  H    2.465015   2.942505   3.167629   2.761622   3.984609
    33  H    4.010180   4.420726   4.297575   4.284420   5.512142
    34  H    5.107580   5.209772   4.565255   5.406089   6.224904
    35  H    4.717861   4.561915   3.686049   5.017959   5.405380
                   16         17         18         19         20
    16  C    0.000000
    17  H    1.100034   0.000000
    18  H    1.094579   1.747580   0.000000
    19  H    1.093015   1.762828   1.782265   0.000000
    20  C    5.902937   6.590117   6.340153   6.207692   0.000000
    21  C    4.289791   5.229278   4.506546   4.476763   2.419535
    22  C    6.561694   7.280489   6.777063   7.006603   1.526386
    23  C    5.114916   6.041015   5.048239   5.483082   2.902389
    24  C    6.476629   7.343735   6.498317   6.849756   2.518581
    25  H    7.629123   8.327679   7.868110   8.052803   2.147456
    26  H    6.366718   6.979524   6.535012   6.965829   2.145335
    27  H    5.390769   6.393038   5.163966   5.656514   3.882933
    28  H    4.781755   5.609056   4.614038   5.349369   3.323676
    29  H    7.161473   8.008190   7.053497   7.615623   3.471257
    30  H    7.023652   7.950709   7.089793   7.245699   2.802381
    31  N    4.458191   5.185489   4.919061   4.759731   1.455931
    32  H    3.318944   4.325002   3.498839   3.459444   3.358475
    33  H    4.973282   5.952602   5.235167   4.939538   2.695326
    34  H    6.483212   7.236727   6.949129   6.622147   1.106132
    35  H    6.260399   6.798959   6.804678   6.614735   1.091768
                   21         22         23         24         25
    21  C    0.000000
    22  C    2.883651   0.000000
    23  C    1.523084   2.498360   0.000000
    24  C    2.508247   1.526357   1.526931   0.000000
    25  H    3.869908   1.093901   3.457568   2.170781   0.000000
    26  H    3.297068   1.095588   2.784399   2.157509   1.765097
    27  H    2.146174   3.457376   1.093953   2.171990   4.305825
    28  H    2.145181   2.788081   1.094757   2.156493   3.798388
    29  H    3.462551   2.168797   2.169403   1.093429   2.531596
    30  H    2.796441   2.154686   2.155227   1.097569   2.470800
    31  N    1.464688   2.453801   2.470425   2.909358   3.389125
    32  H    1.090430   3.876051   2.158402   3.457981   4.905610
    33  H    1.106008   3.296163   2.157861   2.790077   4.096558
    34  H    2.722757   2.158047   3.328467   2.805509   2.447694
    35  H    3.354499   2.152981   3.883083   3.460335   2.480990
                   26         27         28         29         30
    26  H    0.000000
    27  H    3.799142   0.000000
    28  H    2.627235   1.766708   0.000000
    29  H    2.478149   2.538277   2.473694   0.000000
    30  H    3.059476   2.467228   3.058164   1.760989   0.000000
    31  N    2.725434   3.404293   2.750303   3.894445   3.333800
    32  H    4.112204   2.482582   2.461280   4.298391   3.790039
    33  H    3.980274   2.453372   3.057441   3.797211   2.626740
    34  H    3.055666   4.122543   4.015413   3.807028   2.639613
    35  H    2.439939   4.910797   4.120935   4.295310   3.798441
                   31         32         33         34         35
    31  N    0.000000
    32  H    2.097258   0.000000
    33  H    2.110190   1.761248   0.000000
    34  H    2.124254   3.705021   2.527654   0.000000
    35  H    2.079886   4.164425   3.683958   1.773429   0.000000
 Symmetry turned off by external request.
 Stoichiometry    C13H20BN
 Framework group  C1[X(C13H20BN)]
 Deg. of freedom    99
 Full point group                 C1      NOp   1
 Rotational constants (GHZ):           0.8695226           0.4785099           0.3426026
 General basis read from cards:  (5D, 7F)
 ======================================================================================================
                                       Pseudopotential Parameters
 ======================================================================================================
  Center     Atomic      Valence      Angular      Power
  Number     Number     Electrons     Momentum     of R      Exponent        Coefficient   SO-Coeffient
 ======================================================================================================
    1          6
                                   No pseudopotential on this center.
    2          6
                                   No pseudopotential on this center.
    3          6
                                   No pseudopotential on this center.
    4          6
                                   No pseudopotential on this center.
    5          6
                                   No pseudopotential on this center.
    6          6
                                   No pseudopotential on this center.
    7          1
                                   No pseudopotential on this center.
    8          1
                                   No pseudopotential on this center.
    9          1
                                   No pseudopotential on this center.
   10          1
                                   No pseudopotential on this center.
   11          5
                                   No pseudopotential on this center.
   12          6
                                   No pseudopotential on this center.
   13          1
                                   No pseudopotential on this center.
   14          1
                                   No pseudopotential on this center.
   15          1
                                   No pseudopotential on this center.
   16          6
                                   No pseudopotential on this center.
   17          1
                                   No pseudopotential on this center.
   18          1
                                   No pseudopotential on this center.
   19          1
                                   No pseudopotential on this center.
   20          6
                                   No pseudopotential on this center.
   21          6
                                   No pseudopotential on this center.
   22          6
                                   No pseudopotential on this center.
   23          6
                                   No pseudopotential on this center.
   24          6
                                   No pseudopotential on this center.
   25          1
                                   No pseudopotential on this center.
   26          1
                                   No pseudopotential on this center.
   27          1
                                   No pseudopotential on this center.
   28          1
                                   No pseudopotential on this center.
   29          1
                                   No pseudopotential on this center.
   30          1
                                   No pseudopotential on this center.
   31          7
                                   No pseudopotential on this center.
   32          1
                                   No pseudopotential on this center.
   33          1
                                   No pseudopotential on this center.
   34          1
                                   No pseudopotential on this center.
   35          1
                                   No pseudopotential on this center.
 ======================================================================================================
   470 basis functions,   720 primitive gaussians,   485 cartesian basis functions
    55 alpha electrons       55 beta electrons
       nuclear repulsion energy       992.0763978875 Hartrees.
 NAtoms=   35 NActive=   35 NUniq=   35 SFac= 1.00D+00 NAtFMM=   60 NAOKFM=F Big=F
 Integral buffers will be    131072 words long.
 Raffenetti 2 integral format.
 Two-electron integral symmetry is turned off.
 Nuclear repulsion after empirical dispersion term =      992.0468334989 Hartrees.
 ------------------------------------------------------------------------------
 Polarizable Continuum Model (PCM)
 =================================
 Model                : PCM.
 Atomic radii         : UFF (Universal Force Field).
 Polarization charges : Total charges.
 Charge compensation  : None.
 Solution method      : On-the-fly selection.
 Cavity type          : Scaled VdW (van der Waals Surface) (Alpha=1.100).
 Cavity algorithm     : GePol (No added spheres)
                        Default sphere list used, NSphG=   35.
                        Lebedev-Laikov grids with approx.  5.0 points / Ang**2.
                        Smoothing algorithm: York/Karplus (Gamma=1.0000).
                        Polarization charges: spherical gaussians, with
                                              point-specific exponents (IZeta= 3).
                        Self-potential: point-specific (ISelfS= 7).
                        Self-field    : sphere-specific E.n sum rule (ISelfD= 2).
 Solvent              : Toluene, Eps=   2.374100 Eps(inf)=   2.238315
 ------------------------------------------------------------------------------
 One-electron integrals computed using PRISM.
   1 Symmetry operations used in ECPInt.
 ECPInt:  NShTT=   18145 NPrTT=   56610 LenC2=   17260 LenP2D=   39717.
 LDataN:  DoStor=T MaxTD1= 4 Len=   56
 Number of processors reduced to  92 by ecpmxn.
 NBasis=   470 RedAO= T EigKep=  1.98D-06  NBF=   470
 NBsUse=   468 1.00D-06 EigRej=  6.50D-07 NBFU=   468
 ExpMin= 3.15D-02 ExpMax= 6.29D+03 ExpMxC= 9.49D+02 IAcc=3 IRadAn=         5 AccDes= 0.00D+00
 Harris functional with IExCor= 4639 and IRadAn=       5 diagonalized for initial guess.
 HarFok:  IExCor= 4639 AccDes= 0.00D+00 IRadAn=         5 IDoV= 1 UseB2=F ITyADJ=14
 ICtDFT=  3500011 ScaDFX=  1.000000  1.000000  1.000000  1.000000
 FoFCou: FMM=F IPFlag=           0 FMFlag=      100000 FMFlg1=           0
         NFxFlg=           0 DoJE=T BraDBF=F KetDBF=T FulRan=T
         wScrn=  0.000000 ICntrl=       500 IOpCl=  0 I1Cent=   200000004 NGrid=           0
         NMat0=    1 NMatS0=      1 NMatT0=    0 NMatD0=    1 NMtDS0=    0 NMtDT0=    0
 Symmetry not used in FoFCou.
 Requested convergence on RMS density matrix=1.00D-08 within 300 cycles.
 Requested convergence on MAX density matrix=1.00D-06.
 Requested convergence on             energy=1.00D-06.
 No special actions if energy rises.
 Inv3:  Mode=1 IEnd=    15911427.
 Iteration    1 A*A^-1 deviation from unit magnitude is 4.88D-15 for   2296.
 Iteration    1 A*A^-1 deviation from orthogonality  is 2.71D-15 for   2291   1442.
 Iteration    1 A^-1*A deviation from unit magnitude is 4.88D-15 for   2296.
 Iteration    1 A^-1*A deviation from orthogonality  is 2.68D-15 for   2289   1492.
 Error on total polarization charges =  0.01033
 SCF Done:  E(RwB97XD) =  -587.018617057     A.U. after   16 cycles
            NFock= 16  Conv=0.47D-08     -V/T= 2.0047

 **********************************************************************

            Population analysis using the SCF Density.

 **********************************************************************

 Alpha  occ. eigenvalues --  -14.43669 -10.32453 -10.31160 -10.30846 -10.28841
 Alpha  occ. eigenvalues --  -10.28663 -10.28031 -10.27846 -10.27825 -10.27804
 Alpha  occ. eigenvalues --  -10.27800 -10.26438 -10.24637 -10.24160  -6.84041
 Alpha  occ. eigenvalues --   -1.04935  -0.95089  -0.90232  -0.86274  -0.84514
 Alpha  occ. eigenvalues --   -0.83216  -0.80115  -0.76717  -0.74740  -0.73176
 Alpha  occ. eigenvalues --   -0.68855  -0.68341  -0.64821  -0.62428  -0.57406
 Alpha  occ. eigenvalues --   -0.56173  -0.55549  -0.54024  -0.53132  -0.52077
 Alpha  occ. eigenvalues --   -0.51139  -0.50473  -0.50086  -0.49482  -0.48939
 Alpha  occ. eigenvalues --   -0.47182  -0.46322  -0.45701  -0.45380  -0.44714
 Alpha  occ. eigenvalues --   -0.43698  -0.42668  -0.41373  -0.40369  -0.40034
 Alpha  occ. eigenvalues --   -0.38835  -0.38139  -0.35193  -0.32682  -0.27659
 Alpha virt. eigenvalues --    0.02308   0.03926   0.04746   0.04787   0.05412
 Alpha virt. eigenvalues --    0.06032   0.06150   0.06411   0.07034   0.07219
 Alpha virt. eigenvalues --    0.07980   0.08075   0.08380   0.09123   0.09348
 Alpha virt. eigenvalues --    0.09700   0.10089   0.10542   0.10632   0.11287
 Alpha virt. eigenvalues --    0.11858   0.12465   0.13163   0.13344   0.14043
 Alpha virt. eigenvalues --    0.14394   0.15108   0.15416   0.15634   0.16342
 Alpha virt. eigenvalues --    0.16765   0.16766   0.17386   0.17588   0.18193
 Alpha virt. eigenvalues --    0.18497   0.18603   0.18762   0.19127   0.19228
 Alpha virt. eigenvalues --    0.19394   0.19688   0.19981   0.20175   0.20384
 Alpha virt. eigenvalues --    0.20709   0.20937   0.21150   0.21434   0.21738
 Alpha virt. eigenvalues --    0.22016   0.22390   0.22809   0.22974   0.23130
 Alpha virt. eigenvalues --    0.23463   0.23828   0.24232   0.24362   0.24859
 Alpha virt. eigenvalues --    0.25170   0.25343   0.25529   0.26194   0.26537
 Alpha virt. eigenvalues --    0.26759   0.27024   0.27395   0.27828   0.28340
 Alpha virt. eigenvalues --    0.28471   0.29232   0.29601   0.29707   0.30411
 Alpha virt. eigenvalues --    0.31144   0.31568   0.31685   0.31810   0.32068
 Alpha virt. eigenvalues --    0.32878   0.32941   0.33270   0.34152   0.34939
 Alpha virt. eigenvalues --    0.35241   0.35315   0.35907   0.36575   0.36938
 Alpha virt. eigenvalues --    0.37065   0.37581   0.38098   0.38248   0.38466
 Alpha virt. eigenvalues --    0.39180   0.39693   0.40373   0.40928   0.41442
 Alpha virt. eigenvalues --    0.41532   0.42403   0.42719   0.42979   0.43193
 Alpha virt. eigenvalues --    0.43898   0.44173   0.44590   0.45280   0.46446
 Alpha virt. eigenvalues --    0.47249   0.48405   0.49294   0.50314   0.51401
 Alpha virt. eigenvalues --    0.51595   0.54693   0.56477   0.56796   0.57531
 Alpha virt. eigenvalues --    0.57761   0.58630   0.59477   0.60261   0.61585
 Alpha virt. eigenvalues --    0.63001   0.63369   0.65000   0.65674   0.65894
 Alpha virt. eigenvalues --    0.66042   0.66463   0.67510   0.67857   0.68422
 Alpha virt. eigenvalues --    0.69338   0.70150   0.70710   0.71687   0.71789
 Alpha virt. eigenvalues --    0.72777   0.73388   0.74243   0.74763   0.75834
 Alpha virt. eigenvalues --    0.76056   0.76553   0.77115   0.77991   0.78989
 Alpha virt. eigenvalues --    0.79182   0.79562   0.79742   0.80145   0.80577
 Alpha virt. eigenvalues --    0.80984   0.82522   0.83411   0.83778   0.83965
 Alpha virt. eigenvalues --    0.84477   0.85139   0.85596   0.86194   0.86709
 Alpha virt. eigenvalues --    0.87576   0.88002   0.88482   0.89223   0.89781
 Alpha virt. eigenvalues --    0.91226   0.91847   0.93166   0.93680   0.95226
 Alpha virt. eigenvalues --    0.95927   0.96178   0.96974   0.97944   0.99432
 Alpha virt. eigenvalues --    0.99871   1.01220   1.01595   1.04205   1.05468
 Alpha virt. eigenvalues --    1.06600   1.07789   1.08649   1.10021   1.10976
 Alpha virt. eigenvalues --    1.12473   1.12954   1.15538   1.16215   1.16723
 Alpha virt. eigenvalues --    1.17835   1.19174   1.20413   1.21140   1.22219
 Alpha virt. eigenvalues --    1.23306   1.24538   1.26010   1.29685   1.31387
 Alpha virt. eigenvalues --    1.34231   1.36000   1.37537   1.38782   1.40144
 Alpha virt. eigenvalues --    1.41872   1.43494   1.44208   1.47415   1.47911
 Alpha virt. eigenvalues --    1.52137   1.53078   1.55873   1.57915   1.59199
 Alpha virt. eigenvalues --    1.59994   1.60858   1.61806   1.63109   1.63996
 Alpha virt. eigenvalues --    1.65541   1.65773   1.66548   1.67408   1.68356
 Alpha virt. eigenvalues --    1.68743   1.69478   1.70149   1.70306   1.71005
 Alpha virt. eigenvalues --    1.71375   1.73022   1.73530   1.73796   1.75102
 Alpha virt. eigenvalues --    1.75528   1.76373   1.77039   1.77872   1.79584
 Alpha virt. eigenvalues --    1.80209   1.80660   1.81853   1.82916   1.83205
 Alpha virt. eigenvalues --    1.84461   1.84825   1.85475   1.86326   1.88134
 Alpha virt. eigenvalues --    1.88588   1.89786   1.90644   1.91067   1.91962
 Alpha virt. eigenvalues --    1.92307   1.94170   1.94674   1.95759   1.97465
 Alpha virt. eigenvalues --    1.99222   2.00084   2.01427   2.02618   2.02827
 Alpha virt. eigenvalues --    2.03946   2.05440   2.07876   2.08345   2.09817
 Alpha virt. eigenvalues --    2.10305   2.12341   2.13556   2.15516   2.16150
 Alpha virt. eigenvalues --    2.18441   2.19098   2.21045   2.22148   2.24325
 Alpha virt. eigenvalues --    2.24759   2.26768   2.28377   2.29381   2.30251
 Alpha virt. eigenvalues --    2.34240   2.34588   2.35503   2.37326   2.38418
 Alpha virt. eigenvalues --    2.39645   2.41579   2.42749   2.43664   2.44872
 Alpha virt. eigenvalues --    2.45843   2.47994   2.49241   2.51152   2.54876
 Alpha virt. eigenvalues --    2.56051   2.56891   2.57521   2.58661   2.58953
 Alpha virt. eigenvalues --    2.59736   2.60167   2.61875   2.63071   2.65010
 Alpha virt. eigenvalues --    2.65731   2.66370   2.67510   2.67765   2.70402
 Alpha virt. eigenvalues --    2.73091   2.74026   2.74916   2.77156   2.77801
 Alpha virt. eigenvalues --    2.78440   2.79681   2.80228   2.80902   2.81307
 Alpha virt. eigenvalues --    2.82114   2.82684   2.84342   2.85186   2.85541
 Alpha virt. eigenvalues --    2.87151   2.88768   2.89780   2.90843   2.91048
 Alpha virt. eigenvalues --    2.92797   2.94209   2.94974   2.95770   2.96636
 Alpha virt. eigenvalues --    2.99101   2.99409   3.00782   3.02456   3.02564
 Alpha virt. eigenvalues --    3.04319   3.06300   3.08681   3.10185   3.11516
 Alpha virt. eigenvalues --    3.17138   3.18198   3.20169   3.22106   3.24059
 Alpha virt. eigenvalues --    3.24474   3.28594   3.35359   3.36423   3.45234
 Alpha virt. eigenvalues --    3.48955   3.50597   3.53906   3.55860   3.61643
 Alpha virt. eigenvalues --    3.66209   3.68846   3.70212   3.74248   3.79072
 Alpha virt. eigenvalues --    3.85721   3.87773   3.89212   3.90488   3.93447
 Alpha virt. eigenvalues --    3.94339   3.95104   3.97059   3.98707   4.06635
 Alpha virt. eigenvalues --    4.08671   4.11689   4.17867   4.23232   4.24242
 Alpha virt. eigenvalues --    4.27134   4.29486   4.33684   4.44854   4.46259
 Alpha virt. eigenvalues --    4.96006   4.99847   5.16447  14.83008  23.77853
 Alpha virt. eigenvalues --   23.98903  24.06936  24.07940  24.08904  24.10034
 Alpha virt. eigenvalues --   24.10562  24.11615  24.14664  24.19238  24.20731
 Alpha virt. eigenvalues --   24.23906  24.33476  35.77065
          Condensed to atoms (all electrons):
               1          2          3          4          5          6
     1  C    7.945401   0.188889  -1.967570   0.634319  -0.900490   0.351497
     2  C    0.188889   9.959162  -2.747028  -2.203167   1.762258  -1.240946
     3  C   -1.967570  -2.747028   9.514849   0.740201  -0.803483   1.194869
     4  C    0.634319  -2.203167   0.740201  10.543521  -1.247773  -1.183131
     5  C   -0.900490   1.762258  -0.803483  -1.247773   7.671804  -0.749285
     6  C    0.351497  -1.240946   1.194869  -1.183131  -0.749285   8.125814
     7  H    0.461851  -0.051577  -0.007905   0.013607  -0.051024  -0.027169
     8  H   -0.064533   0.450122  -0.129470   0.016265   0.052754  -0.013719
     9  H   -0.007794   0.052198  -0.007596  -0.049284   0.460335  -0.112540
    10  H   -0.049513  -0.033410   0.027857   0.068227  -0.043257   0.357144
    11  B   -0.114630  -0.248701   0.522590   0.185944  -0.079462   0.127844
    12  C   -0.019019  -0.170746  -0.003177   0.075218  -0.065521   0.016013
    13  H    0.009623  -0.026090   0.019908  -0.000549  -0.000974   0.002743
    14  H    0.011001   0.036406   0.027016  -0.024219   0.005218  -0.003001
    15  H   -0.014842  -0.068354   0.029986   0.032042  -0.005407   0.002538
    16  C   -0.186587  -0.012734  -0.014090  -0.083222   0.039332   0.036284
    17  H    0.005927   0.024656  -0.041082  -0.001238  -0.000806  -0.002316
    18  H   -0.014379  -0.012556   0.016515   0.003180  -0.000511   0.000718
    19  H   -0.016961  -0.029238   0.060360  -0.011728   0.002764   0.002820
    20  C    0.011086   0.101209  -0.189536  -0.057405   0.026975  -0.379266
    21  C    0.058401  -0.200698  -0.094259  -0.002849   0.006142   0.102217
    22  C   -0.004162   0.108107  -0.087079   0.059604  -0.238135  -0.191282
    23  C    0.016050   0.224670   0.031904  -0.459314   0.084032  -0.053877
    24  C   -0.002676   0.003507  -0.012586   0.102769  -0.020433  -0.004389
    25  H   -0.000389  -0.002214  -0.004319   0.024818  -0.007182  -0.000973
    26  H    0.002960   0.009723   0.014164  -0.072066   0.021262   0.000871
    27  H   -0.000450  -0.002389   0.001474   0.006238   0.002669   0.001973
    28  H   -0.000080   0.003325   0.010257  -0.037352   0.001300  -0.001058
    29  H   -0.000156   0.000731   0.000172   0.010067  -0.001680  -0.000561
    30  H    0.001309   0.004130   0.007115  -0.041008   0.007079  -0.001882
    31  N    0.071558   0.117020  -0.183693  -0.757896   0.012340   0.054664
    32  H    0.015745   0.014378  -0.002341  -0.034755   0.002537  -0.023854
    33  H    0.007088  -0.023155   0.031192  -0.022970   0.014292   0.014683
    34  H    0.008902   0.003878   0.019571  -0.177171   0.089672   0.043258
    35  H    0.000373  -0.011716   0.003563   0.061618  -0.010212  -0.008508
               7          8          9         10         11         12
     1  C    0.461851  -0.064533  -0.007794  -0.049513  -0.114630  -0.019019
     2  C   -0.051577   0.450122   0.052198  -0.033410  -0.248701  -0.170746
     3  C   -0.007905  -0.129470  -0.007596   0.027857   0.522590  -0.003177
     4  C    0.013607   0.016265  -0.049284   0.068227   0.185944   0.075218
     5  C   -0.051024   0.052754   0.460335  -0.043257  -0.079462  -0.065521
     6  C   -0.027169  -0.013719  -0.112540   0.357144   0.127844   0.016013
     7  H    0.472297  -0.011509   0.001382  -0.009136  -0.004161  -0.000555
     8  H   -0.011509   0.516103  -0.000562   0.001795  -0.040115   0.002391
     9  H    0.001382  -0.000562   0.500194  -0.009563  -0.005679  -0.002873
    10  H   -0.009136   0.001795  -0.009563   0.465571   0.003185   0.000376
    11  B   -0.004161  -0.040115  -0.005679   0.003185   5.596921   0.235074
    12  C   -0.000555   0.002391  -0.002873   0.000376   0.235074   5.427622
    13  H    0.000407  -0.002173  -0.001027  -0.000267  -0.149794   0.415250
    14  H    0.000356  -0.003887   0.000597  -0.000244  -0.235693   0.396751
    15  H   -0.000332   0.000039  -0.000193   0.000119  -0.106643   0.412656
    16  C   -0.001765   0.001825   0.000626   0.000082   0.139451  -0.075040
    17  H    0.000373  -0.004147   0.000060  -0.000037  -0.123225  -0.005461
    18  H   -0.000243   0.001747   0.000005   0.000005  -0.154227   0.025990
    19  H   -0.000034   0.003540   0.000334   0.000009  -0.193020   0.005472
    20  C   -0.002003   0.004397   0.022283   0.001945   0.084689  -0.014613
    21  C    0.001561  -0.009302   0.001692  -0.001732  -0.317239   0.087626
    22  C   -0.000726   0.001862  -0.004519  -0.001269  -0.086129   0.031659
    23  C   -0.000027   0.005905   0.000020  -0.000487   0.201668  -0.109349
    24  C   -0.000014  -0.000002   0.002313   0.000003  -0.013040   0.023476
    25  H   -0.000003  -0.000056  -0.000089   0.000008  -0.000534   0.000824
    26  H    0.000041  -0.000025   0.001446  -0.000159   0.007051  -0.006499
    27  H    0.000009  -0.000156  -0.000094   0.000023   0.005320  -0.003090
    28  H   -0.000055   0.000330  -0.000318   0.000064  -0.011261   0.011326
    29  H    0.000002   0.000023   0.000198  -0.000009  -0.000405  -0.001615
    30  H    0.000011   0.000021   0.001412  -0.000100  -0.008447  -0.000683
    31  N    0.001059   0.000006  -0.019832  -0.005817  -0.031072  -0.040249
    32  H    0.000469   0.000392   0.001139  -0.000642  -0.292838   0.026646
    33  H    0.000272  -0.000945   0.004049  -0.000509  -0.018651  -0.001753
    34  H    0.000077  -0.000311   0.000629  -0.000237  -0.002106  -0.004528
    35  H   -0.000104   0.000029  -0.015705   0.000659   0.002313   0.001294
              13         14         15         16         17         18
     1  C    0.009623   0.011001  -0.014842  -0.186587   0.005927  -0.014379
     2  C   -0.026090   0.036406  -0.068354  -0.012734   0.024656  -0.012556
     3  C    0.019908   0.027016   0.029986  -0.014090  -0.041082   0.016515
     4  C   -0.000549  -0.024219   0.032042  -0.083222  -0.001238   0.003180
     5  C   -0.000974   0.005218  -0.005407   0.039332  -0.000806  -0.000511
     6  C    0.002743  -0.003001   0.002538   0.036284  -0.002316   0.000718
     7  H    0.000407   0.000356  -0.000332  -0.001765   0.000373  -0.000243
     8  H   -0.002173  -0.003887   0.000039   0.001825  -0.004147   0.001747
     9  H   -0.001027   0.000597  -0.000193   0.000626   0.000060   0.000005
    10  H   -0.000267  -0.000244   0.000119   0.000082  -0.000037   0.000005
    11  B   -0.149794  -0.235693  -0.106643   0.139451  -0.123225  -0.154227
    12  C    0.415250   0.396751   0.412656  -0.075040  -0.005461   0.025990
    13  H    0.597040  -0.010800  -0.016956  -0.020185  -0.005796  -0.001081
    14  H   -0.010800   0.596975  -0.009282   0.022172   0.007701   0.000881
    15  H   -0.016956  -0.009282   0.517855   0.025980   0.003488   0.012581
    16  C   -0.020185   0.022172   0.025980   5.494174   0.444076   0.421293
    17  H   -0.005796   0.007701   0.003488   0.444076   0.518321   0.004926
    18  H   -0.001081   0.000881   0.012581   0.421293   0.004926   0.528695
    19  H   -0.007053   0.001644  -0.001617   0.453811  -0.014386  -0.007336
    20  C    0.000257  -0.028524  -0.001401  -0.013884   0.000248  -0.002725
    21  C    0.023120   0.110757   0.008240   0.034942   0.002259   0.016426
    22  C   -0.018759   0.011002   0.002760   0.006011   0.000093   0.000946
    23  C   -0.019215  -0.081489  -0.012070  -0.029046  -0.003146  -0.015418
    24  C    0.011205  -0.002827   0.001392  -0.001007   0.000027   0.000322
    25  H    0.000855   0.000092   0.000172   0.000239   0.000021   0.000046
    26  H   -0.014078   0.002868  -0.001854   0.000566   0.000079  -0.000146
    27  H    0.002328  -0.001153  -0.000247  -0.000287   0.000007  -0.000012
    28  H   -0.002963   0.006770   0.001686  -0.003222  -0.000268   0.000999
    29  H    0.000254   0.000742  -0.000282  -0.000029  -0.000024  -0.000079
    30  H   -0.000001   0.001630  -0.000173   0.000112  -0.000004  -0.000058
    31  N    0.011583  -0.020579  -0.003579  -0.007180  -0.001038  -0.002120
    32  H    0.002909   0.033237   0.004746   0.037996   0.002587   0.008869
    33  H    0.000046   0.004846  -0.000704   0.001077   0.000065   0.000187
    34  H    0.000282   0.000945  -0.000498   0.000221  -0.000014   0.000027
    35  H    0.002053  -0.001241   0.000340  -0.000849  -0.000074  -0.000168
              19         20         21         22         23         24
     1  C   -0.016961   0.011086   0.058401  -0.004162   0.016050  -0.002676
     2  C   -0.029238   0.101209  -0.200698   0.108107   0.224670   0.003507
     3  C    0.060360  -0.189536  -0.094259  -0.087079   0.031904  -0.012586
     4  C   -0.011728  -0.057405  -0.002849   0.059604  -0.459314   0.102769
     5  C    0.002764   0.026975   0.006142  -0.238135   0.084032  -0.020433
     6  C    0.002820  -0.379266   0.102217  -0.191282  -0.053877  -0.004389
     7  H   -0.000034  -0.002003   0.001561  -0.000726  -0.000027  -0.000014
     8  H    0.003540   0.004397  -0.009302   0.001862   0.005905  -0.000002
     9  H    0.000334   0.022283   0.001692  -0.004519   0.000020   0.002313
    10  H    0.000009   0.001945  -0.001732  -0.001269  -0.000487   0.000003
    11  B   -0.193020   0.084689  -0.317239  -0.086129   0.201668  -0.013040
    12  C    0.005472  -0.014613   0.087626   0.031659  -0.109349   0.023476
    13  H   -0.007053   0.000257   0.023120  -0.018759  -0.019215   0.011205
    14  H    0.001644  -0.028524   0.110757   0.011002  -0.081489  -0.002827
    15  H   -0.001617  -0.001401   0.008240   0.002760  -0.012070   0.001392
    16  C    0.453811  -0.013884   0.034942   0.006011  -0.029046  -0.001007
    17  H   -0.014386   0.000248   0.002259   0.000093  -0.003146   0.000027
    18  H   -0.007336  -0.002725   0.016426   0.000946  -0.015418   0.000322
    19  H    0.565031   0.000140  -0.001890  -0.000340   0.001704  -0.000297
    20  C    0.000140   6.868318  -0.460306  -1.170414   0.303604   0.074796
    21  C   -0.001890  -0.460306   7.120885  -0.029025  -0.937716  -0.161412
    22  C   -0.000340  -1.170414  -0.029025   7.921366  -0.193082  -0.164146
    23  C    0.001704   0.303604  -0.937716  -0.193082   6.615013  -0.006392
    24  C   -0.000297   0.074796  -0.161412  -0.164146  -0.006392   6.053207
    25  H    0.000000  -0.009761   0.007406   0.373550   0.004005  -0.035449
    26  H    0.000258  -0.100610  -0.004388   0.546583  -0.010033  -0.083695
    27  H   -0.000323   0.004234  -0.029332  -0.015007   0.394842  -0.026349
    28  H   -0.000289   0.017459  -0.078106  -0.011878   0.530363  -0.092113
    29  H    0.000009  -0.008968   0.007771  -0.029670  -0.046882   0.410072
    30  H    0.000125  -0.068546  -0.039582   0.004482  -0.045073   0.497726
    31  N    0.002695   0.332952   0.056018  -0.171523   0.112586  -0.059010
    32  H    0.018557  -0.064303   0.627126   0.075381  -0.124697  -0.046013
    33  H    0.000290  -0.036281   0.563032  -0.037334  -0.136187  -0.023769
    34  H    0.000299   0.435972   0.023074  -0.108828   0.004647  -0.043368
    35  H   -0.000280   0.431093  -0.000085  -0.035221  -0.003011   0.012653
              25         26         27         28         29         30
     1  C   -0.000389   0.002960  -0.000450  -0.000080  -0.000156   0.001309
     2  C   -0.002214   0.009723  -0.002389   0.003325   0.000731   0.004130
     3  C   -0.004319   0.014164   0.001474   0.010257   0.000172   0.007115
     4  C    0.024818  -0.072066   0.006238  -0.037352   0.010067  -0.041008
     5  C   -0.007182   0.021262   0.002669   0.001300  -0.001680   0.007079
     6  C   -0.000973   0.000871   0.001973  -0.001058  -0.000561  -0.001882
     7  H   -0.000003   0.000041   0.000009  -0.000055   0.000002   0.000011
     8  H   -0.000056  -0.000025  -0.000156   0.000330   0.000023   0.000021
     9  H   -0.000089   0.001446  -0.000094  -0.000318   0.000198   0.001412
    10  H    0.000008  -0.000159   0.000023   0.000064  -0.000009  -0.000100
    11  B   -0.000534   0.007051   0.005320  -0.011261  -0.000405  -0.008447
    12  C    0.000824  -0.006499  -0.003090   0.011326  -0.001615  -0.000683
    13  H    0.000855  -0.014078   0.002328  -0.002963   0.000254  -0.000001
    14  H    0.000092   0.002868  -0.001153   0.006770   0.000742   0.001630
    15  H    0.000172  -0.001854  -0.000247   0.001686  -0.000282  -0.000173
    16  C    0.000239   0.000566  -0.000287  -0.003222  -0.000029   0.000112
    17  H    0.000021   0.000079   0.000007  -0.000268  -0.000024  -0.000004
    18  H    0.000046  -0.000146  -0.000012   0.000999  -0.000079  -0.000058
    19  H    0.000000   0.000258  -0.000323  -0.000289   0.000009   0.000125
    20  C   -0.009761  -0.100610   0.004234   0.017459  -0.008968  -0.068546
    21  C    0.007406  -0.004388  -0.029332  -0.078106   0.007771  -0.039582
    22  C    0.373550   0.546583  -0.015007  -0.011878  -0.029670   0.004482
    23  C    0.004005  -0.010033   0.394842   0.530363  -0.046882  -0.045073
    24  C   -0.035449  -0.083695  -0.026349  -0.092113   0.410072   0.497726
    25  H    0.497721  -0.018517   0.000822  -0.003533  -0.007431  -0.005176
    26  H   -0.018517   0.509795  -0.003456  -0.001374  -0.001137   0.006062
    27  H    0.000822  -0.003456   0.503433  -0.022397  -0.007209  -0.006838
    28  H   -0.003533  -0.001374  -0.022397   0.542740  -0.008673   0.001041
    29  H   -0.007431  -0.001137  -0.007209  -0.008673   0.507099  -0.008413
    30  H   -0.005176   0.006062  -0.006838   0.001041  -0.008413   0.513767
    31  N    0.004141   0.027484   0.012038   0.005266  -0.009049   0.018907
    32  H   -0.000881   0.000305  -0.016284   0.014280   0.000539   0.008591
    33  H    0.000698   0.002269  -0.002567   0.001125  -0.001729   0.004271
    34  H   -0.006351   0.007769   0.000766   0.002731  -0.001416   0.004666
    35  H   -0.007438  -0.010915   0.000976  -0.000362  -0.000808  -0.004674
              31         32         33         34         35
     1  C    0.071558   0.015745   0.007088   0.008902   0.000373
     2  C    0.117020   0.014378  -0.023155   0.003878  -0.011716
     3  C   -0.183693  -0.002341   0.031192   0.019571   0.003563
     4  C   -0.757896  -0.034755  -0.022970  -0.177171   0.061618
     5  C    0.012340   0.002537   0.014292   0.089672  -0.010212
     6  C    0.054664  -0.023854   0.014683   0.043258  -0.008508
     7  H    0.001059   0.000469   0.000272   0.000077  -0.000104
     8  H    0.000006   0.000392  -0.000945  -0.000311   0.000029
     9  H   -0.019832   0.001139   0.004049   0.000629  -0.015705
    10  H   -0.005817  -0.000642  -0.000509  -0.000237   0.000659
    11  B   -0.031072  -0.292838  -0.018651  -0.002106   0.002313
    12  C   -0.040249   0.026646  -0.001753  -0.004528   0.001294
    13  H    0.011583   0.002909   0.000046   0.000282   0.002053
    14  H   -0.020579   0.033237   0.004846   0.000945  -0.001241
    15  H   -0.003579   0.004746  -0.000704  -0.000498   0.000340
    16  C   -0.007180   0.037996   0.001077   0.000221  -0.000849
    17  H   -0.001038   0.002587   0.000065  -0.000014  -0.000074
    18  H   -0.002120   0.008869   0.000187   0.000027  -0.000168
    19  H    0.002695   0.018557   0.000290   0.000299  -0.000280
    20  C    0.332952  -0.064303  -0.036281   0.435972   0.431093
    21  C    0.056018   0.627126   0.563032   0.023074  -0.000085
    22  C   -0.171523   0.075381  -0.037334  -0.108828  -0.035221
    23  C    0.112586  -0.124697  -0.136187   0.004647  -0.003011
    24  C   -0.059010  -0.046013  -0.023769  -0.043368   0.012653
    25  H    0.004141  -0.000881   0.000698  -0.006351  -0.007438
    26  H    0.027484   0.000305   0.002269   0.007769  -0.010915
    27  H    0.012038  -0.016284  -0.002567   0.000766   0.000976
    28  H    0.005266   0.014280   0.001125   0.002731  -0.000362
    29  H   -0.009049   0.000539  -0.001729  -0.001416  -0.000808
    30  H    0.018907   0.008591   0.004271   0.004666  -0.004674
    31  N    7.341933  -0.073627  -0.096785  -0.025837  -0.074046
    32  H   -0.073627   0.652043   0.005268  -0.000542  -0.003428
    33  H   -0.096785   0.005268   0.523148   0.018847  -0.004985
    34  H   -0.025837  -0.000542   0.018847   0.574966  -0.036295
    35  H   -0.074046  -0.003428  -0.004985  -0.036295   0.530408
 Mulliken charges:
               1
     1  C   -0.437749
     2  C    0.020350
     3  C    0.021648
     4  C   -0.110541
     5  C   -0.037132
     6  C   -0.438192
     7  H    0.214567
     8  H    0.221365
     9  H    0.186756
    10  H    0.229318
    11  B    0.125023
    12  C   -0.670893
    13  H    0.197898
    14  H    0.143331
    15  H    0.187814
    16  C   -0.711142
    17  H    0.188149
    18  H    0.166699
    19  H    0.164933
    20  C   -0.113109
    21  C   -0.490771
    22  C   -0.544875
    23  C   -0.244500
    24  C   -0.394481
    25  H    0.194879
    26  H    0.167395
    27  H    0.200490
    28  H    0.124238
    29  H    0.198548
    30  H    0.148204
    31  N    0.400681
    32  H    0.130467
    33  H    0.211580
    34  H    0.166302
    35  H    0.182752
 Sum of Mulliken charges =  -0.00000
 Mulliken charges with hydrogens summed into heavy atoms:
               1
     1  C   -0.223182
     2  C    0.241715
     3  C    0.021648
     4  C   -0.110541
     5  C    0.149624
     6  C   -0.208874
    11  B    0.125023
    12  C   -0.141851
    16  C   -0.191362
    20  C    0.235945
    21  C   -0.148724
    22  C   -0.182601
    23  C    0.080228
    24  C   -0.047730
    31  N    0.400681
 Electronic spatial extent (au):  <R**2>=           9543.4385
 Charge=             -0.0000 electrons
 Dipole moment (field-independent basis, Debye):
    X=              0.0098    Y=              1.6068    Z=             -0.3179  Tot=              1.6380
 Quadrupole moment (field-independent basis, Debye-Ang):
   XX=            -89.8889   YY=            -76.6333   ZZ=            -94.8586
   XY=              2.9434   XZ=              1.5283   YZ=             -4.3295
 Traceless Quadrupole moment (field-independent basis, Debye-Ang):
   XX=             -2.7620   YY=             10.4937   ZZ=             -7.7317
   XY=              2.9434   XZ=              1.5283   YZ=             -4.3295
 Octapole moment (field-independent basis, Debye-Ang**2):
  XXX=           -444.9081  YYY=           -883.3992  ZZZ=             74.6305  XYY=           -118.7695
  XXY=           -316.3962  XXZ=             29.0451  XZZ=           -150.2396  YZZ=           -328.8505
  YYZ=              3.8211  XYZ=              7.0529
 Hexadecapole moment (field-independent basis, Debye-Ang**3):
 XXXX=          -3047.4656 YYYY=          -8841.4011 ZZZZ=           -819.0508 XXXY=          -1713.6627
 XXXZ=            123.1885 YYYX=          -1545.1810 YYYZ=            590.6466 ZZZX=            110.0476
 ZZZY=            702.4262 XXYY=          -1992.4314 XXZZ=           -667.1572 YYZZ=          -1675.9149
 XXYZ=            256.9230 YYXZ=             54.1519 ZZXY=           -578.3551
 N-N= 9.920468334989D+02 E-N=-3.345381752852D+03  KE= 5.842526927697D+02
 Breneman (CHELPG) radii used.
 Generate Potential Derived Charges using the Breneman model, NDens= 1.
 Grid spacing= 0.300 Box extension= 2.800
 NStep X,Y,Z=   44     46     38   Total possible points=       76912
 Number of Points to Fit=   18689

 **********************************************************************

            Electrostatic Properties Using The SCF Density.

 **********************************************************************

       Atomic Center    1 is at  -0.620078  0.957122  0.681860
       Atomic Center    2 is at   0.757522  1.090950  0.813170
       Atomic Center    3 is at   1.459358  2.191288  0.304566
       Atomic Center    4 is at   0.710206  3.236072 -0.291827
       Atomic Center    5 is at  -0.678600  3.105525 -0.410231
       Atomic Center    6 is at  -1.331492  1.970118  0.056418
       Atomic Center    7 is at  -1.127256  0.078277  1.063158
       Atomic Center    8 is at   1.314223  0.293590  1.296561
       Atomic Center    9 is at  -1.267210  3.898934 -0.852382
       Atomic Center   10 is at  -2.408532  1.895356 -0.051452
       Atomic Center   11 is at   3.024923  2.080039  0.288007
       Atomic Center   12 is at   3.892424  2.533408 -0.947280
       Atomic Center   13 is at   3.325085  2.938022 -1.785515
       Atomic Center   14 is at   4.622221  3.290100 -0.630748
       Atomic Center   15 is at   4.494732  1.681114 -1.288343
       Atomic Center   16 is at   3.772842  1.359080  1.478770
       Atomic Center   17 is at   3.905198  0.302868  1.201329
       Atomic Center   18 is at   4.783399  1.752199  1.628223
       Atomic Center   19 is at   3.238166  1.374400  2.431959
       Atomic Center   20 is at   0.653777  5.279488 -1.643168
       Atomic Center   21 is at   2.133578  5.133073  0.265471
       Atomic Center   22 is at   1.615012  6.231601 -2.349824
       Atomic Center   23 is at   3.136856  6.084041 -0.373965
       Atomic Center   24 is at   2.436538  7.033142 -1.343646
       Atomic Center   25 is at   1.041211  6.897409 -3.001032
       Atomic Center   26 is at   2.284751  5.644808 -2.988132
       Atomic Center   27 is at   3.652508  6.642089  0.413066
       Atomic Center   28 is at   3.888761  5.498325 -0.912546
       Atomic Center   29 is at   3.164676  7.666772 -1.857373
       Atomic Center   30 is at   1.771062  7.700713 -0.781376
       Atomic Center   31 is at   1.377019  4.390480 -0.745215
       Atomic Center   32 is at   2.645737  4.431141  0.924274
       Atomic Center   33 is at   1.435668  5.710647  0.899966
       Atomic Center   34 is at  -0.105045  5.870986 -1.097415
       Atomic Center   35 is at   0.129109  4.673976 -2.384812
   18689 points will be used for fitting atomic charges
 Fitting point charges to electrostatic potential
 Charges from ESP fit, RMS=   0.00315 RRMS=   0.34303:
 ESP charges:
               1
     1  C   -0.191149
     2  C   -0.023385
     3  C   -0.361885
     4  C    0.379932
     5  C   -0.229069
     6  C   -0.069556
     7  H    0.110234
     8  H    0.079148
     9  H    0.105645
    10  H    0.104397
    11  B    0.589712
    12  C   -0.471554
    13  H    0.071061
    14  H    0.104825
    15  H    0.073771
    16  C   -0.291746
    17  H    0.057023
    18  H    0.040192
    19  H    0.026640
    20  C    0.197000
    21  C    0.268343
    22  C   -0.079944
    23  C   -0.007466
    24  C    0.013057
    25  H    0.013101
    26  H    0.043385
    27  H   -0.002546
    28  H    0.012442
    29  H    0.004420
    30  H    0.005538
    31  N   -0.479715
    32  H   -0.049863
    33  H   -0.043136
    34  H   -0.001197
    35  H    0.002344
 Sum of ESP charges =  -0.00000
 ESP charges with hydrogens summed into heavy atoms:
               1
     1  C   -0.080915
     2  C    0.055763
     3  C   -0.361885
     4  C    0.379932
     5  C   -0.123424
     6  C    0.034842
    11  B    0.589712
    12  C   -0.221897
    16  C   -0.167891
    20  C    0.198147
    21  C    0.175343
    22  C   -0.023457
    23  C    0.002430
    24  C    0.023016
    31  N   -0.479715
 Charge=  -0.00000 Dipole=    -0.0552     1.5284    -0.3130 Tot=     1.5611
 -----------------------------------------------------------------

              Electrostatic Properties (Atomic Units)

 -----------------------------------------------------------------
    Center     Electric         -------- Electric Field --------
               Potential          X             Y             Z
 -----------------------------------------------------------------
    1 Atom    -14.789326
    2 Atom    -14.781632
    3 Atom    -14.802495
    4 Atom    -14.740368
    5 Atom    -14.785317
    6 Atom    -14.779077
    7 Atom     -1.115297
    8 Atom     -1.116887
    9 Atom     -1.108534
   10 Atom     -1.110327
   11 Atom    -11.474426
   12 Atom    -14.817348
   13 Atom     -1.142670
   14 Atom     -1.118717
   15 Atom     -1.123419
   16 Atom    -14.811742
   17 Atom     -1.110593
   18 Atom     -1.125130
   19 Atom     -1.131185
   20 Atom    -14.745338
   21 Atom    -14.743177
   22 Atom    -14.774604
   23 Atom    -14.775037
   24 Atom    -14.773915
   25 Atom     -1.121187
   26 Atom     -1.127498
   27 Atom     -1.120835
   28 Atom     -1.126881
   29 Atom     -1.124785
   30 Atom     -1.124797
   31 Atom    -18.387746
   32 Atom     -1.114657
   33 Atom     -1.123621
   34 Atom     -1.121733
   35 Atom     -1.117479
 -----------------------------------------------------------------
 Unable to Open any file for archive entry.
 1\1\GINC-IRENE5536\SP\RwB97XD\GenECP\C13H20B1N1\PENASFRA\09-Apr-2024\0
 \\# wb97xd/genecp scrf=(solvent=toluene,pcm) nosymm pop=(chelpg) scfcy
 c=300\\me_benzopiperidine_chelpg\\0,1\C,0,-0.620078,0.957122,0.68186\C
 ,0,0.757522,1.09095,0.81317\C,0,1.459358,2.191288,0.304566\C,0,0.71020
 6,3.236072,-0.291827\C,0,-0.6786,3.105525,-0.410231\C,0,-1.331492,1.97
 0118,0.056418\H,0,-1.127256,0.078277,1.063158\H,0,1.314223,0.29359,1.2
 96561\H,0,-1.26721,3.898934,-0.852382\H,0,-2.408532,1.895356,-0.051452
 \B,0,3.024923,2.080039,0.288007\C,0,3.892424,2.533408,-0.94728\H,0,3.3
 25085,2.938022,-1.785515\H,0,4.622221,3.2901,-0.630748\H,0,4.494732,1.
 681114,-1.288343\C,0,3.772842,1.35908,1.47877\H,0,3.905198,0.302868,1.
 201329\H,0,4.783399,1.752199,1.628223\H,0,3.238166,1.3744,2.431959\C,0
 ,0.653777,5.279488,-1.643168\C,0,2.133578,5.133073,0.265471\C,0,1.6150
 12,6.231601,-2.349824\C,0,3.136856,6.084041,-0.373965\C,0,2.436538,7.0
 33142,-1.343646\H,0,1.041211,6.897409,-3.001032\H,0,2.284751,5.644808,
 -2.988132\H,0,3.652508,6.642089,0.413066\H,0,3.888761,5.498325,-0.9125
 46\H,0,3.164676,7.666772,-1.857373\H,0,1.771062,7.700713,-0.781376\N,0
 ,1.377019,4.39048,-0.745215\H,0,2.645737,4.431141,0.924274\H,0,1.43566
 8,5.710647,0.899966\H,0,-0.105045,5.870986,-1.097415\H,0,0.129109,4.67
 3976,-2.384812\\Version=AS64L-G16RevC.02\HF=-587.0186171\RMSD=4.689e-0
 9\Dipole=0.0038428,0.6321569,-0.1250556\Quadrupole=-2.0534597,7.801782
 4,-5.7483227,2.1883763,1.1362754,-3.2188655\PG=C01 [X(C13H20B1N1)]\\@
 The archive entry for this job was punched.


       THE DEATH-KNELL OF THE ATOM

 SO THE ATOMS IN TURN, WE NOW CLEARLY DISCERN,
 FLY TO BITS WITH THE UTMOST FACILITY;
 THEY WEND ON THEIR WAY, AND, IN SPLITTING, DISPLAY
 AN ABSOLUTE LACK OF STABILITY.

          SIR WM. RAMSAY, 1905
 Job cpu time:       0 days  1 hours 21 minutes 32.5 seconds.
 Elapsed time:       0 days  0 hours  0 minutes 49.0 seconds.
 File lengths (MBytes):  RWF=    206 Int=      0 D2E=      0 Chk=     15 Scr=      1
 Normal termination of Gaussian 16 at Tue Apr  9 18:30:20 2024.
