 Entering Gaussian System, Link 0=/ccc/products/gaussian-16-C.02/system/default/g16/g16
 Input=me_cinnoline_chelpg.gjf
 Output=me_cinnoline_chelpg.log
 Initial command:
 /ccc/products/gaussian-16-C.02/system/default/g16/l1.exe "/ccc/scratch/cont003/gen7343/penasfra/flp/b-n_flp/me_cinnoline/Reactant/Gau-1832388.inp" -scrdir="/ccc/scratch/cont003/gen7343/penasfra/flp/b-n_flp/me_cinnoline/Reactant/"
 Entering Link 1 = /ccc/products/gaussian-16-C.02/system/default/g16/l1.exe PID=   1832437.
  
 Copyright (c) 1988-2021, Gaussian, Inc.  All Rights Reserved.
  
 This is part of the Gaussian(R) 16 program.  It is based on
 the Gaussian(R) 09 system (copyright 2009, Gaussian, Inc.),
 the Gaussian(R) 03 system (copyright 2003, Gaussian, Inc.),
 the Gaussian(R) 98 system (copyright 1998, Gaussian, Inc.),
 the Gaussian(R) 94 system (copyright 1995, Gaussian, Inc.),
 the Gaussian 92(TM) system (copyright 1992, Gaussian, Inc.),
 the Gaussian 90(TM) system (copyright 1990, Gaussian, Inc.),
 the Gaussian 88(TM) system (copyright 1988, Gaussian, Inc.),
 the Gaussian 86(TM) system (copyright 1986, Carnegie Mellon
 University), and the Gaussian 82(TM) system (copyright 1983,
 Carnegie Mellon University). Gaussian is a federally registered
 trademark of Gaussian, Inc.
  
 This software contains proprietary and confidential information,
 including trade secrets, belonging to Gaussian, Inc.
  
 This software is provided under written license and may be
 used, copied, transmitted, or stored only in accord with that
 written license.
  
 The following legend is applicable only to US Government
 contracts under FAR:
  
                    RESTRICTED RIGHTS LEGEND
  
 Use, reproduction and disclosure by the US Government is
 subject to restrictions as set forth in subparagraphs (a)
 and (c) of the Commercial Computer Software - Restricted
 Rights clause in FAR 52.227-19.
  
 Gaussian, Inc.
 340 Quinnipiac St., Bldg. 40, Wallingford CT 06492
  
  
 ---------------------------------------------------------------
 Warning -- This program may not be used in any manner that
 competes with the business of Gaussian, Inc. or will provide
 assistance to any competitor of Gaussian, Inc.  The licensee
 of this program is prohibited from giving any competitor of
 Gaussian, Inc. access to this program.  By using this program,
 the user acknowledges that Gaussian, Inc. is engaged in the
 business of creating and licensing software in the field of
 computational chemistry and represents and warrants to the
 licensee that it is not a competitor of Gaussian, Inc. and that
 it will not use this program in any manner prohibited above.
 ---------------------------------------------------------------
  

 Cite this work as:
 Gaussian 16, Revision C.02,
 M. J. Frisch, G. W. Trucks, H. B. Schlegel, G. E. Scuseria, 
 M. A. Robb, J. R. Cheeseman, G. Scalmani, V. Barone, 
 G. A. Petersson, H. Nakatsuji, X. Li, M. Caricato, A. V. Marenich, 
 J. Bloino, B. G. Janesko, R. Gomperts, B. Mennucci, H. P. Hratchian, 
 J. V. Ortiz, A. F. Izmaylov, J. L. Sonnenberg, D. Williams-Young, 
 F. Ding, F. Lipparini, F. Egidi, J. Goings, B. Peng, A. Petrone, 
 T. Henderson, D. Ranasinghe, V. G. Zakrzewski, J. Gao, N. Rega, 
 G. Zheng, W. Liang, M. Hada, M. Ehara, K. Toyota, R. Fukuda, 
 J. Hasegawa, M. Ishida, T. Nakajima, Y. Honda, O. Kitao, H. Nakai, 
 T. Vreven, K. Throssell, J. A. Montgomery, Jr., J. E. Peralta, 
 F. Ogliaro, M. J. Bearpark, J. J. Heyd, E. N. Brothers, K. N. Kudin, 
 V. N. Staroverov, T. A. Keith, R. Kobayashi, J. Normand, 
 K. Raghavachari, A. P. Rendell, J. C. Burant, S. S. Iyengar, 
 J. Tomasi, M. Cossi, J. M. Millam, M. Klene, C. Adamo, R. Cammi, 
 J. W. Ochterski, R. L. Martin, K. Morokuma, O. Farkas, 
 J. B. Foresman, and D. J. Fox, Gaussian, Inc., Wallingford CT, 2019.
 
 ******************************************
 Gaussian 16:  AS64L-G16RevC.02  7-Dec-2021
                10-Apr-2024 
 ******************************************
 %nprocshared=128
 Will use up to  128 processors via shared memory.
 %mem=30GB
 %chk=me_cinnoline_chelpg.chk
 ----------------------------------------------------------------------
 # wb97xd/genecp scrf=(solvent=toluene,pcm) nosymm pop=(chelpg) scfcyc=
 300
 ----------------------------------------------------------------------
 1/38=1,172=1/1;
 2/12=2,15=1,17=6,18=5,40=1/2;
 3/5=7,11=2,16=1,17=8,25=1,30=1,70=2201,72=13,74=-58/1,2,3;
 4//1;
 5/5=2,7=300,38=5,53=13/2;
 6/7=2,8=2,9=2,10=2,15=8,20=3,28=1/1,2;
 99/5=1,9=1/99;
 -------------------
 me_cinnoline_chelpg
 -------------------
 Symbolic Z-matrix:
 Charge =  0 Multiplicity = 1
 C                    -3.99172   0.02355   0.65528 
 C                    -2.69525   0.02562   0.20271 
 C                    -2.11624   1.2875   -0.11859 
 C                    -2.83851   2.49361   0.03635 
 C                    -4.16805   2.44158   0.52584 
 C                    -4.72294   1.22847   0.8239 
 H                    -4.48207  -0.91364   0.9008 
 C                    -2.15384   3.6649   -0.32722 
 H                    -4.72757   3.36216   0.65006 
 H                    -5.74138   1.1783    1.19321 
 C                    -0.87241   3.53875  -0.79437 
 H                    -2.62511   4.63805  -0.24416 
 H                    -0.28511   4.39853  -1.0934 
 N                    -0.84206   1.25537  -0.59875 
 B                    -1.79877  -1.26644   0.03277 
 C                    -0.77136  -1.6366    1.15682 
 H                     0.079    -2.21367   0.78287 
 H                    -0.41194  -0.78201   1.73387 
 H                    -1.30917  -2.29526   1.85727 
 C                    -2.02513  -2.17981  -1.22138 
 H                    -3.07632  -2.25002  -1.51805 
 H                    -1.51176  -1.67776  -2.05509 
 H                    -1.59706  -3.18146  -1.13242 
 N                    -0.23466   2.34822  -0.9263 
 
                          Input orientation:                          
 ---------------------------------------------------------------------
 Center     Atomic      Atomic             Coordinates (Angstroms)
 Number     Number       Type             X           Y           Z
 ---------------------------------------------------------------------
      1          6           0       -3.991718    0.023547    0.655276
      2          6           0       -2.695254    0.025623    0.202710
      3          6           0       -2.116237    1.287498   -0.118594
      4          6           0       -2.838509    2.493612    0.036354
      5          6           0       -4.168050    2.441583    0.525835
      6          6           0       -4.722936    1.228473    0.823900
      7          1           0       -4.482071   -0.913640    0.900803
      8          6           0       -2.153843    3.664901   -0.327217
      9          1           0       -4.727567    3.362162    0.650058
     10          1           0       -5.741376    1.178295    1.193206
     11          6           0       -0.872413    3.538750   -0.794372
     12          1           0       -2.625108    4.638046   -0.244162
     13          1           0       -0.285108    4.398529   -1.093401
     14          7           0       -0.842062    1.255368   -0.598750
     15          5           0       -1.798765   -1.266441    0.032768
     16          6           0       -0.771356   -1.636598    1.156824
     17          1           0        0.079000   -2.213667    0.782867
     18          1           0       -0.411939   -0.782007    1.733866
     19          1           0       -1.309173   -2.295261    1.857271
     20          6           0       -2.025132   -2.179811   -1.221375
     21          1           0       -3.076323   -2.250015   -1.518051
     22          1           0       -1.511760   -1.677764   -2.055085
     23          1           0       -1.597061   -3.181455   -1.132420
     24          7           0       -0.234661    2.348223   -0.926301
 ---------------------------------------------------------------------
                    Distance matrix (angstroms):
                    1          2          3          4          5
     1  C    0.000000
     2  C    1.373186   0.000000
     3  C    2.390371   1.425070   0.000000
     4  C    2.795385   2.477734   1.414354   0.000000
     5  C    2.427910   2.847876   2.440725   1.417737   0.000000
     6  C    1.419493   2.438077   2.772482   2.402472   1.366886
     7  H    1.085840   2.135946   3.388414   3.880455   3.390683
     8  C    4.195538   3.717296   2.386835   1.404589   2.506239
     9  H    3.418750   3.932291   3.422587   2.167845   1.084415
    10  H    2.164282   3.404202   3.856731   3.390428   2.125238
    11  C    4.918150   4.081542   2.659306   2.376542   3.715904
    12  H    4.895938   4.634551   3.391296   2.173206   2.792493
    13  H    5.994772   5.158586   3.739224   3.380076   4.639914
    14  N    3.606979   2.364092   1.362022   2.433599   3.705940
    15  B    2.619280   1.581772   2.578043   3.901164   4.427874
    16  C    3.657644   2.715639   3.462042   4.752600   5.344833
    17  H    4.646736   3.612131   4.229640   5.588168   6.306731
    18  H    3.824538   2.865350   3.258695   4.415820   5.095021
    19  H    3.744023   3.169431   4.170319   5.346766   5.690658
    20  C    3.499152   2.709432   3.639596   4.907581   5.385362
    21  H    3.275726   2.878326   3.923550   4.997472   5.232631
    22  H    4.048544   3.065913   3.592794   4.851264   5.539499
    23  H    4.382040   3.643343   4.611825   5.925674   6.401433
    24  N    4.692652   3.567023   2.306048   2.779904   4.193920
                    6          7          8          9         10
     6  C    0.000000
     7  H    2.156984   0.000000
     8  C    3.723102   5.281261   0.000000
     9  H    2.140764   4.290178   2.769616   0.000000
    10  H    1.084493   2.459175   4.622260   2.468217   0.000000
    11  C    4.773124   5.977209   1.369748   4.120652   5.764461
    12  H    4.143287   5.964937   1.084435   2.616838   4.873092
    13  H    5.780970   7.057655   2.148818   4.883559   6.735677
    14  N    4.133502   4.494766   2.756873   4.592957   5.217310
    15  B    3.924444   2.842197   4.957197   5.512068   4.782001
    16  C    4.892285   3.789145   5.676226   6.395000   5.711921
    17  H    5.908350   4.744191   6.385565   7.362784   6.749116
    18  H    4.843012   4.156597   5.201662   6.080577   5.704209
    19  H    5.013814   3.590402   6.403826   6.719317   5.670185
    20  C    4.803925   3.484735   5.914114   6.443515   5.560355
    21  H    4.505102   3.100465   6.103711   6.238897   5.119251
    22  H    5.200617   4.259567   5.651714   6.562017   6.049638
    23  H    5.748543   4.195267   6.915992   7.469687   6.449132
    24  N    4.945873   5.658494   2.403290   4.868181   6.015393
                   11         12         13         14         15
    11  C    0.000000
    12  H    2.140823   0.000000
    13  H    1.083312   2.500835   0.000000
    14  N    2.291947   3.840247   3.230223   0.000000
    15  B    4.963079   5.968459   5.970871   2.770129   0.000000
    16  C    5.531872   6.691062   6.459312   3.383860   1.567191
    17  H    6.040130   7.437268   6.882884   3.845962   2.232910
    18  H    5.027222   6.179619   5.903175   3.126819   2.247598
    19  H    6.423212   7.363318   7.386609   4.342488   2.151042
    20  C    5.849191   6.913616   6.805778   3.686159   1.567916
    21  H    6.236243   7.019385   7.223181   4.257317   2.237099
    22  H    5.404644   6.663966   6.273025   3.342554   2.147251
    23  H    6.767610   7.936654   7.692782   4.532133   2.250695
    24  N    1.357014   3.379769   2.057723   1.292501   4.053644
                   16         17         18         19         20
    16  C    0.000000
    17  H    1.093599   0.000000
    18  H    1.092009   1.787476   0.000000
    19  H    1.101685   1.757278   1.763575   0.000000
    20  C    2.742784   2.906115   3.645504   3.162908   0.000000
    21  H    3.583868   3.905331   4.452971   3.810205   1.094508
    22  H    3.296400   3.297223   4.045755   3.965964   1.100306
    23  H    2.882535   2.722888   3.921410   3.131529   1.092908
    24  N    4.528383   4.881647   4.111722   5.519492   4.878109
                   21         22         23         24
    21  H    0.000000
    22  H    1.750353   0.000000
    23  H    1.790114   1.766260   0.000000
    24  N    5.437739   4.371923   5.698768   0.000000
 Symmetry turned off by external request.
 Stoichiometry    C10H11BN2
 Framework group  C1[X(C10H11BN2)]
 Deg. of freedom    66
 Full point group                 C1      NOp   1
 Rotational constants (GHZ):           1.1817014           0.7360348           0.5101846
 General basis read from cards:  (5D, 7F)
 ======================================================================================================
                                       Pseudopotential Parameters
 ======================================================================================================
  Center     Atomic      Valence      Angular      Power
  Number     Number     Electrons     Momentum     of R      Exponent        Coefficient   SO-Coeffient
 ======================================================================================================
    1          6
                                   No pseudopotential on this center.
    2          6
                                   No pseudopotential on this center.
    3          6
                                   No pseudopotential on this center.
    4          6
                                   No pseudopotential on this center.
    5          6
                                   No pseudopotential on this center.
    6          6
                                   No pseudopotential on this center.
    7          1
                                   No pseudopotential on this center.
    8          6
                                   No pseudopotential on this center.
    9          1
                                   No pseudopotential on this center.
   10          1
                                   No pseudopotential on this center.
   11          6
                                   No pseudopotential on this center.
   12          1
                                   No pseudopotential on this center.
   13          1
                                   No pseudopotential on this center.
   14          7
                                   No pseudopotential on this center.
   15          5
                                   No pseudopotential on this center.
   16          6
                                   No pseudopotential on this center.
   17          1
                                   No pseudopotential on this center.
   18          1
                                   No pseudopotential on this center.
   19          1
                                   No pseudopotential on this center.
   20          6
                                   No pseudopotential on this center.
   21          1
                                   No pseudopotential on this center.
   22          1
                                   No pseudopotential on this center.
   23          1
                                   No pseudopotential on this center.
   24          7
                                   No pseudopotential on this center.
 ======================================================================================================
   363 basis functions,   567 primitive gaussians,   376 cartesian basis functions
    45 alpha electrons       45 beta electrons
       nuclear repulsion energy       713.7550017614 Hartrees.
 NAtoms=   24 NActive=   24 NUniq=   24 SFac= 1.00D+00 NAtFMM=   60 NAOKFM=F Big=F
 Integral buffers will be    131072 words long.
 Raffenetti 2 integral format.
 Two-electron integral symmetry is turned off.
 Nuclear repulsion after empirical dispersion term =      713.7404402686 Hartrees.
 ------------------------------------------------------------------------------
 Polarizable Continuum Model (PCM)
 =================================
 Model                : PCM.
 Atomic radii         : UFF (Universal Force Field).
 Polarization charges : Total charges.
 Charge compensation  : None.
 Solution method      : On-the-fly selection.
 Cavity type          : Scaled VdW (van der Waals Surface) (Alpha=1.100).
 Cavity algorithm     : GePol (No added spheres)
                        Default sphere list used, NSphG=   24.
                        Lebedev-Laikov grids with approx.  5.0 points / Ang**2.
                        Smoothing algorithm: York/Karplus (Gamma=1.0000).
                        Polarization charges: spherical gaussians, with
                                              point-specific exponents (IZeta= 3).
                        Self-potential: point-specific (ISelfS= 7).
                        Self-field    : sphere-specific E.n sum rule (ISelfD= 2).
 Solvent              : Toluene, Eps=   2.374100 Eps(inf)=   2.238315
 ------------------------------------------------------------------------------
 One-electron integrals computed using PRISM.
   1 Symmetry operations used in ECPInt.
 ECPInt:  NShTT=    8911 NPrTT=   30648 LenC2=    8556 LenP2D=   21465.
 LDataN:  DoStor=T MaxTD1= 4 Len=   56
 Number of processors reduced to 121 by ecpmxn.
 NBasis=   363 RedAO= T EigKep=  1.22D-06  NBF=   363
 NBsUse=   361 1.00D-06 EigRej=  5.46D-07 NBFU=   361
 ExpMin= 3.15D-02 ExpMax= 6.29D+03 ExpMxC= 9.49D+02 IAcc=3 IRadAn=         5 AccDes= 0.00D+00
 Harris functional with IExCor= 4639 and IRadAn=       5 diagonalized for initial guess.
 HarFok:  IExCor= 4639 AccDes= 0.00D+00 IRadAn=         5 IDoV= 1 UseB2=F ITyADJ=14
 ICtDFT=  3500011 ScaDFX=  1.000000  1.000000  1.000000  1.000000
 FoFCou: FMM=F IPFlag=           0 FMFlag=      100000 FMFlg1=           0
         NFxFlg=           0 DoJE=T BraDBF=F KetDBF=T FulRan=T
         wScrn=  0.000000 ICntrl=       500 IOpCl=  0 I1Cent=   200000004 NGrid=           0
         NMat0=    1 NMatS0=      1 NMatT0=    0 NMatD0=    1 NMtDS0=    0 NMtDT0=    0
 Symmetry not used in FoFCou.
 Requested convergence on RMS density matrix=1.00D-08 within 300 cycles.
 Requested convergence on MAX density matrix=1.00D-06.
 Requested convergence on             energy=1.00D-06.
 No special actions if energy rises.
 Inv3:  Mode=1 IEnd=    11560107.
 Iteration    1 A*A^-1 deviation from unit magnitude is 4.66D-15 for   1959.
 Iteration    1 A*A^-1 deviation from orthogonality  is 1.92D-15 for   1959   1938.
 Iteration    1 A^-1*A deviation from unit magnitude is 4.66D-15 for   1941.
 Iteration    1 A^-1*A deviation from orthogonality  is 1.40D-15 for   1886   1239.
 Error on total polarization charges =  0.00984
 SCF Done:  E(RwB97XD) =  -521.978107139     A.U. after   16 cycles
            NFock= 16  Conv=0.90D-08     -V/T= 2.0042

 **********************************************************************

            Population analysis using the SCF Density.

 **********************************************************************

 Alpha  occ. eigenvalues --  -14.47826 -14.47643 -10.33607 -10.33005 -10.32474
 Alpha  occ. eigenvalues --  -10.32070 -10.30923 -10.30588 -10.30420 -10.28935
 Alpha  occ. eigenvalues --  -10.25070 -10.24919  -6.85366  -1.14036  -0.98484
 Alpha  occ. eigenvalues --   -0.93942  -0.89984  -0.86265  -0.80778  -0.77600
 Alpha  occ. eigenvalues --   -0.77449  -0.75505  -0.71464  -0.64498  -0.62616
 Alpha  occ. eigenvalues --   -0.60608  -0.56586  -0.55033  -0.54105  -0.53057
 Alpha  occ. eigenvalues --   -0.51609  -0.50601  -0.48952  -0.48010  -0.47623
 Alpha  occ. eigenvalues --   -0.46997  -0.46359  -0.45769  -0.41776  -0.41460
 Alpha  occ. eigenvalues --   -0.39180  -0.38887  -0.35517  -0.32514  -0.31740
 Alpha virt. eigenvalues --   -0.01724   0.02294   0.03723   0.04505   0.05010
 Alpha virt. eigenvalues --    0.05150   0.06235   0.06449   0.06940   0.07131
 Alpha virt. eigenvalues --    0.07676   0.08868   0.09096   0.09572   0.09764
 Alpha virt. eigenvalues --    0.10529   0.11565   0.12326   0.12817   0.13011
 Alpha virt. eigenvalues --    0.13388   0.14433   0.14704   0.15370   0.15841
 Alpha virt. eigenvalues --    0.16234   0.16632   0.16934   0.17301   0.17449
 Alpha virt. eigenvalues --    0.17876   0.18064   0.18579   0.18847   0.19549
 Alpha virt. eigenvalues --    0.19906   0.20305   0.20786   0.21321   0.21775
 Alpha virt. eigenvalues --    0.22045   0.22377   0.23165   0.23249   0.23759
 Alpha virt. eigenvalues --    0.23995   0.24529   0.24696   0.25163   0.25754
 Alpha virt. eigenvalues --    0.26283   0.26790   0.27205   0.27799   0.27979
 Alpha virt. eigenvalues --    0.28935   0.29620   0.30219   0.30345   0.30669
 Alpha virt. eigenvalues --    0.31177   0.31455   0.32037   0.32740   0.33079
 Alpha virt. eigenvalues --    0.33706   0.34035   0.34759   0.35135   0.36311
 Alpha virt. eigenvalues --    0.36994   0.37717   0.37972   0.38185   0.38778
 Alpha virt. eigenvalues --    0.39073   0.39769   0.40600   0.41552   0.42206
 Alpha virt. eigenvalues --    0.42955   0.43449   0.44795   0.45837   0.47732
 Alpha virt. eigenvalues --    0.48164   0.49803   0.51298   0.51588   0.54562
 Alpha virt. eigenvalues --    0.56242   0.56682   0.57192   0.58449   0.59017
 Alpha virt. eigenvalues --    0.61046   0.61377   0.62224   0.63121   0.63655
 Alpha virt. eigenvalues --    0.64472   0.65295   0.66691   0.67451   0.68451
 Alpha virt. eigenvalues --    0.69176   0.70121   0.70822   0.71389   0.72121
 Alpha virt. eigenvalues --    0.72555   0.73241   0.74185   0.75709   0.76264
 Alpha virt. eigenvalues --    0.77222   0.77600   0.79826   0.80215   0.80625
 Alpha virt. eigenvalues --    0.80890   0.81750   0.82480   0.83633   0.84560
 Alpha virt. eigenvalues --    0.85827   0.86561   0.87438   0.89537   0.90211
 Alpha virt. eigenvalues --    0.90610   0.93576   0.94300   0.95459   0.95926
 Alpha virt. eigenvalues --    0.96094   0.97594   0.98859   0.99968   1.01460
 Alpha virt. eigenvalues --    1.02050   1.02874   1.04191   1.04494   1.05413
 Alpha virt. eigenvalues --    1.06174   1.08242   1.09603   1.10952   1.11506
 Alpha virt. eigenvalues --    1.13660   1.14975   1.15546   1.17039   1.17728
 Alpha virt. eigenvalues --    1.21227   1.22545   1.24670   1.25958   1.27686
 Alpha virt. eigenvalues --    1.29509   1.33792   1.34424   1.36468   1.40457
 Alpha virt. eigenvalues --    1.42630   1.43947   1.47823   1.49511   1.53253
 Alpha virt. eigenvalues --    1.55069   1.55960   1.56692   1.57607   1.58418
 Alpha virt. eigenvalues --    1.60328   1.60960   1.63179   1.64248   1.64692
 Alpha virt. eigenvalues --    1.67504   1.68367   1.69198   1.69947   1.71596
 Alpha virt. eigenvalues --    1.73768   1.74568   1.75043   1.76821   1.77662
 Alpha virt. eigenvalues --    1.80364   1.80567   1.82241   1.83131   1.84521
 Alpha virt. eigenvalues --    1.84914   1.86657   1.87238   1.90621   1.91400
 Alpha virt. eigenvalues --    1.92817   1.94355   1.95430   1.97581   1.99775
 Alpha virt. eigenvalues --    2.02219   2.02520   2.03316   2.06026   2.08295
 Alpha virt. eigenvalues --    2.08331   2.09310   2.13594   2.15315   2.15991
 Alpha virt. eigenvalues --    2.18715   2.19802   2.20001   2.22988   2.24248
 Alpha virt. eigenvalues --    2.27149   2.30613   2.32433   2.35040   2.36649
 Alpha virt. eigenvalues --    2.37429   2.41597   2.43025   2.44504   2.47335
 Alpha virt. eigenvalues --    2.48443   2.50196   2.54029   2.55439   2.56116
 Alpha virt. eigenvalues --    2.57376   2.58652   2.59698   2.62758   2.64441
 Alpha virt. eigenvalues --    2.66716   2.67873   2.68659   2.69771   2.74127
 Alpha virt. eigenvalues --    2.74987   2.75425   2.77512   2.80219   2.80410
 Alpha virt. eigenvalues --    2.80955   2.81993   2.82121   2.82591   2.83634
 Alpha virt. eigenvalues --    2.84097   2.84967   2.85268   2.85720   2.88306
 Alpha virt. eigenvalues --    2.90320   2.94152   2.96973   2.97543   2.97897
 Alpha virt. eigenvalues --    2.98982   3.08394   3.09189   3.11030   3.11798
 Alpha virt. eigenvalues --    3.14200   3.22301   3.24726   3.30124   3.38810
 Alpha virt. eigenvalues --    3.44295   3.46512   3.50886   3.52016   3.59594
 Alpha virt. eigenvalues --    3.61169   3.67097   3.69281   3.76346   3.78482
 Alpha virt. eigenvalues --    3.80940   3.90196   3.92639   3.92829   3.95306
 Alpha virt. eigenvalues --    4.01003   4.03244   4.09580   4.13516   4.14468
 Alpha virt. eigenvalues --    4.19147   4.21362   4.25316   4.46900   4.70853
 Alpha virt. eigenvalues --    4.75668   4.92615   5.69446  14.84200  23.70806
 Alpha virt. eigenvalues --   23.96751  24.04493  24.08929  24.13204  24.15187
 Alpha virt. eigenvalues --   24.16569  24.26246  24.27112  24.31889  35.64879
 Alpha virt. eigenvalues --   35.79790
          Condensed to atoms (all electrons):
               1          2          3          4          5          6
     1  C   11.350901  -2.581649  -4.179627   1.940310  -1.334657  -0.122957
     2  C   -2.581649  11.375188   0.752456  -3.394475   2.361972  -0.553137
     3  C   -4.179627   0.752456  14.728216  -0.149511  -1.762168   0.965383
     4  C    1.940310  -3.394475  -0.149511  12.223511  -4.626315   0.060587
     5  C   -1.334657   2.361972  -1.762168  -4.626315  11.275549  -0.463338
     6  C   -0.122957  -0.553137   0.965383   0.060587  -0.463338   6.469220
     7  H    0.604050  -0.246879  -0.061528   0.125071  -0.079782  -0.030518
     8  C    0.833402  -2.189720  -4.244802  -0.081525   0.918135  -0.097431
     9  H   -0.022584   0.051285   0.038091  -0.057048   0.403261  -0.069102
    10  H   -0.095075   0.054744   0.030213  -0.008442  -0.018389   0.374505
    11  C    0.037704   0.710517   0.630696  -0.531599  -0.483557  -0.237523
    12  H    0.007966  -0.029519   0.008925  -0.034058  -0.016551   0.024318
    13  H   -0.009838   0.005798   0.021635  -0.023235   0.019162  -0.001278
    14  N    0.497594   0.256025  -1.448591   0.192703  -0.055673  -0.101537
    15  B    0.238939   0.181642  -0.500374   0.087360   0.123847  -0.038530
    16  C   -0.249770  -0.163012   0.334634  -0.089868  -0.012698   0.029639
    17  H   -0.007377   0.036930   0.011747  -0.008629  -0.001615   0.001609
    18  H    0.022549   0.025089  -0.045838  -0.024900   0.005830   0.002344
    19  H   -0.015760  -0.020161   0.004521   0.004697   0.003480  -0.000728
    20  C   -0.245046  -0.158333   0.294287  -0.110442   0.019529   0.042161
    21  H    0.017293  -0.002039   0.002813  -0.015052   0.003282   0.023963
    22  H   -0.057432  -0.021974   0.084955   0.002802  -0.004572  -0.002692
    23  H    0.013436   0.024725  -0.018037   0.004798   0.000108  -0.003052
    24  N   -0.587522  -0.628185   1.545740  -0.152690   0.220949   0.059085
               7          8          9         10         11         12
     1  C    0.604050   0.833402  -0.022584  -0.095075   0.037704   0.007966
     2  C   -0.246879  -2.189720   0.051285   0.054744   0.710517  -0.029519
     3  C   -0.061528  -4.244802   0.038091   0.030213   0.630696   0.008925
     4  C    0.125071  -0.081525  -0.057048  -0.008442  -0.531599  -0.034058
     5  C   -0.079782   0.918135   0.403261  -0.018389  -0.483557  -0.016551
     6  C   -0.030518  -0.097431  -0.069102   0.374505  -0.237523   0.024318
     7  H    0.498581   0.027873  -0.000070  -0.008814  -0.004369   0.000111
     8  C    0.027873  11.240724  -0.026771  -0.012538  -1.550696   0.365563
     9  H   -0.000070  -0.026771   0.454479  -0.007528   0.039772  -0.001472
    10  H   -0.008814  -0.012538  -0.007528   0.441277  -0.000887   0.000750
    11  C   -0.004369  -1.550696   0.039772  -0.000887   7.669249  -0.019640
    12  H    0.000111   0.365563  -0.001472   0.000750  -0.019640   0.431956
    13  H   -0.000175  -0.091081   0.001375  -0.000094   0.459683  -0.005933
    14  N    0.000222   0.109010  -0.003684  -0.000248   0.619431  -0.004167
    15  B   -0.043810   0.057608  -0.002538   0.002179  -0.043916   0.002252
    16  C   -0.004622  -0.003082   0.000075   0.000629   0.000264   0.000484
    17  H   -0.001180  -0.003595   0.000078   0.000071   0.003761   0.000018
    18  H    0.002514  -0.009392   0.000125  -0.000241   0.001993   0.000045
    19  H    0.001148   0.000859   0.000005  -0.000254  -0.000166  -0.000046
    20  C   -0.009285  -0.012896   0.000727   0.000107   0.001162   0.000061
    21  H   -0.002488  -0.004918   0.000276  -0.000120   0.003851  -0.000131
    22  H   -0.000468  -0.003619   0.000118   0.000068   0.002438  -0.000051
    23  H   -0.000338   0.000980   0.000008  -0.000095   0.000184  -0.000002
    24  N   -0.005884   0.113872   0.000379   0.001456  -0.664215   0.007698
              13         14         15         16         17         18
     1  C   -0.009838   0.497594   0.238939  -0.249770  -0.007377   0.022549
     2  C    0.005798   0.256025   0.181642  -0.163012   0.036930   0.025089
     3  C    0.021635  -1.448591  -0.500374   0.334634   0.011747  -0.045838
     4  C   -0.023235   0.192703   0.087360  -0.089868  -0.008629  -0.024900
     5  C    0.019162  -0.055673   0.123847  -0.012698  -0.001615   0.005830
     6  C   -0.001278  -0.101537  -0.038530   0.029639   0.001609   0.002344
     7  H   -0.000175   0.000222  -0.043810  -0.004622  -0.001180   0.002514
     8  C   -0.091081   0.109010   0.057608  -0.003082  -0.003595  -0.009392
     9  H    0.001375  -0.003684  -0.002538   0.000075   0.000078   0.000125
    10  H   -0.000094  -0.000248   0.002179   0.000629   0.000071  -0.000241
    11  C    0.459683   0.619431  -0.043916   0.000264   0.003761   0.001993
    12  H   -0.005933  -0.004167   0.002252   0.000484   0.000018   0.000045
    13  H    0.453469  -0.034701  -0.006668   0.000848   0.000263   0.000032
    14  N   -0.034701   8.260677   0.225088  -0.056790  -0.009762   0.004686
    15  B   -0.006668   0.225088   4.708644   0.347454  -0.108948  -0.098190
    16  C    0.000848  -0.056790   0.347454   5.313005   0.411637   0.413880
    17  H    0.000263  -0.009762  -0.108948   0.411637   0.537007  -0.016070
    18  H    0.000032   0.004686  -0.098190   0.413880  -0.016070   0.554341
    19  H    0.000015   0.002893  -0.092332   0.412300  -0.017079  -0.014245
    20  C    0.001056  -0.063474   0.254155  -0.014315   0.017793  -0.006832
    21  H    0.000185  -0.006849  -0.133809  -0.010547  -0.001395  -0.005037
    22  H    0.000238  -0.009456  -0.112284  -0.004669   0.003848  -0.005689
    23  H    0.000010   0.000971  -0.060214  -0.003245  -0.003499  -0.001261
    24  N   -0.039726  -1.525403  -0.125579   0.042429  -0.000256   0.002303
              19         20         21         22         23         24
     1  C   -0.015760  -0.245046   0.017293  -0.057432   0.013436  -0.587522
     2  C   -0.020161  -0.158333  -0.002039  -0.021974   0.024725  -0.628185
     3  C    0.004521   0.294287   0.002813   0.084955  -0.018037   1.545740
     4  C    0.004697  -0.110442  -0.015052   0.002802   0.004798  -0.152690
     5  C    0.003480   0.019529   0.003282  -0.004572   0.000108   0.220949
     6  C   -0.000728   0.042161   0.023963  -0.002692  -0.003052   0.059085
     7  H    0.001148  -0.009285  -0.002488  -0.000468  -0.000338  -0.005884
     8  C    0.000859  -0.012896  -0.004918  -0.003619   0.000980   0.113872
     9  H    0.000005   0.000727   0.000276   0.000118   0.000008   0.000379
    10  H   -0.000254   0.000107  -0.000120   0.000068  -0.000095   0.001456
    11  C   -0.000166   0.001162   0.003851   0.002438   0.000184  -0.664215
    12  H   -0.000046   0.000061  -0.000131  -0.000051  -0.000002   0.007698
    13  H    0.000015   0.001056   0.000185   0.000238   0.000010  -0.039726
    14  N    0.002893  -0.063474  -0.006849  -0.009456   0.000971  -1.525403
    15  B   -0.092332   0.254155  -0.133809  -0.112284  -0.060214  -0.125579
    16  C    0.412300  -0.014315  -0.010547  -0.004669  -0.003245   0.042429
    17  H   -0.017079   0.017793  -0.001395   0.003848  -0.003499  -0.000256
    18  H   -0.014245  -0.006832  -0.005037  -0.005689  -0.001261   0.002303
    19  H    0.553911  -0.001437  -0.003354  -0.002856   0.000445   0.002415
    20  C   -0.001437   5.369793   0.426015   0.423865   0.400500   0.053179
    21  H   -0.003354   0.426015   0.567467  -0.006521  -0.019748  -0.004072
    22  H   -0.002856   0.423865  -0.006521   0.519322  -0.015803   0.004345
    23  H    0.000445   0.400500  -0.019748  -0.015803   0.541025   0.000931
    24  N    0.002415   0.053179  -0.004072   0.004345   0.000931   8.744953
 Mulliken charges:
               1
     1  C   -0.054852
     2  C    0.152711
     3  C   -1.043834
     4  C    0.665951
     5  C   -0.495789
     6  C   -0.330989
     7  H    0.240641
     8  C    0.664040
     9  H    0.200742
    10  H    0.246727
    11  C   -0.644135
    12  H    0.261423
    13  H    0.248959
    14  N    0.151034
    15  B    0.138026
    16  C   -0.694657
    17  H    0.154646
    18  H    0.191967
    19  H    0.181728
    20  C   -0.682330
    21  H    0.170936
    22  H    0.206085
    23  H    0.137175
    24  N   -0.066202
 Sum of Mulliken charges =  -0.00000
 Mulliken charges with hydrogens summed into heavy atoms:
               1
     1  C    0.185788
     2  C    0.152711
     3  C   -1.043834
     4  C    0.665951
     5  C   -0.295047
     6  C   -0.084262
     8  C    0.925463
    11  C   -0.395176
    14  N    0.151034
    15  B    0.138026
    16  C   -0.166317
    20  C   -0.168134
    24  N   -0.066202
 Electronic spatial extent (au):  <R**2>=           4162.8722
 Charge=             -0.0000 electrons
 Dipole moment (field-independent basis, Debye):
    X=             -4.0505    Y=              1.4287    Z=              1.3450  Tot=              4.5007
 Quadrupole moment (field-independent basis, Debye-Ang):
   XX=            -61.3603   YY=            -60.3612   ZZ=            -80.0363
   XY=             -8.0775   XZ=             -3.2632   YZ=             -0.1781
 Traceless Quadrupole moment (field-independent basis, Debye-Ang):
   XX=              5.8923   YY=              6.8915   ZZ=            -12.7837
   XY=             -8.0775   XZ=             -3.2632   YZ=             -0.1781
 Octapole moment (field-independent basis, Debye-Ang**2):
  XXX=            431.3072  YYY=           -128.4241  ZZZ=              7.0898  XYY=            126.8850
  XXY=            -44.2061  XXZ=             27.2828  XZZ=            176.0227  YZZ=            -74.6599
  YYZ=             -0.1373  XYZ=              1.5685
 Hexadecapole moment (field-independent basis, Debye-Ang**3):
 XXXX=          -2846.2646 YYYY=          -1855.3171 ZZZZ=           -386.4024 XXXY=            383.5872
 XXXZ=            -46.4277 YYYX=            323.3514 YYYZ=             17.8212 ZZZX=            105.5084
 ZZZY=             63.3350 XXYY=           -779.7044 XXZZ=           -627.0687 YYZZ=           -453.1889
 XXYZ=             39.7664 YYXZ=             17.8215 ZZXY=            181.3237
 N-N= 7.137404402686D+02 E-N=-2.639766979996D+03  KE= 5.197779242829D+02
 Breneman (CHELPG) radii used.
 Generate Potential Derived Charges using the Breneman model, NDens= 1.
 Grid spacing= 0.300 Box extension= 2.800
 NStep X,Y,Z=   40     46     32   Total possible points=       58880
 Number of Points to Fit=   15826

 **********************************************************************

            Electrostatic Properties Using The SCF Density.

 **********************************************************************

       Atomic Center    1 is at  -3.991718  0.023547  0.655276
       Atomic Center    2 is at  -2.695254  0.025623  0.202710
       Atomic Center    3 is at  -2.116237  1.287498 -0.118594
       Atomic Center    4 is at  -2.838509  2.493612  0.036354
       Atomic Center    5 is at  -4.168050  2.441583  0.525835
       Atomic Center    6 is at  -4.722936  1.228473  0.823900
       Atomic Center    7 is at  -4.482071 -0.913640  0.900803
       Atomic Center    8 is at  -2.153843  3.664901 -0.327217
       Atomic Center    9 is at  -4.727567  3.362162  0.650058
       Atomic Center   10 is at  -5.741376  1.178295  1.193206
       Atomic Center   11 is at  -0.872413  3.538750 -0.794372
       Atomic Center   12 is at  -2.625108  4.638046 -0.244162
       Atomic Center   13 is at  -0.285108  4.398529 -1.093401
       Atomic Center   14 is at  -0.842062  1.255368 -0.598750
       Atomic Center   15 is at  -1.798765 -1.266441  0.032768
       Atomic Center   16 is at  -0.771356 -1.636598  1.156824
       Atomic Center   17 is at   0.079000 -2.213667  0.782867
       Atomic Center   18 is at  -0.411939 -0.782007  1.733866
       Atomic Center   19 is at  -1.309173 -2.295261  1.857271
       Atomic Center   20 is at  -2.025132 -2.179811 -1.221375
       Atomic Center   21 is at  -3.076323 -2.250015 -1.518051
       Atomic Center   22 is at  -1.511760 -1.677764 -2.055085
       Atomic Center   23 is at  -1.597061 -3.181455 -1.132420
       Atomic Center   24 is at  -0.234661  2.348223 -0.926301
   15826 points will be used for fitting atomic charges
 Fitting point charges to electrostatic potential
 Charges from ESP fit, RMS=   0.00448 RRMS=   0.26283:
 ESP charges:
               1
     1  C   -0.081847
     2  C   -0.328173
     3  C    0.399166
     4  C    0.215347
     5  C   -0.293295
     6  C   -0.081496
     7  H    0.107329
     8  C   -0.360606
     9  H    0.166579
    10  H    0.119981
    11  C    0.429338
    12  H    0.160447
    13  H   -0.005280
    14  N   -0.233958
    15  B    0.679626
    16  C   -0.667882
    17  H    0.134267
    18  H    0.133822
    19  H    0.145498
    20  C   -0.436862
    21  H    0.070560
    22  H    0.069631
    23  H    0.093948
    24  N   -0.436139
 Sum of ESP charges =   0.00000
 ESP charges with hydrogens summed into heavy atoms:
               1
     1  C    0.025482
     2  C   -0.328173
     3  C    0.399166
     4  C    0.215347
     5  C   -0.126717
     6  C    0.038485
     8  C   -0.200159
    11  C    0.424058
    14  N   -0.233958
    15  B    0.679626
    16  C   -0.254295
    20  C   -0.202722
    24  N   -0.436139
 Charge=   0.00000 Dipole=    -4.0492     1.4548     1.3867 Tot=     4.5205
 -----------------------------------------------------------------

              Electrostatic Properties (Atomic Units)

 -----------------------------------------------------------------
    Center     Electric         -------- Electric Field --------
               Potential          X             Y             Z
 -----------------------------------------------------------------
    1 Atom    -14.755500
    2 Atom    -14.776837
    3 Atom    -14.730771
    4 Atom    -14.736952
    5 Atom    -14.751882
    6 Atom    -14.749556
    7 Atom     -1.091281
    8 Atom    -14.739636
    9 Atom     -1.079207
   10 Atom     -1.084136
   11 Atom    -14.735353
   12 Atom     -1.065846
   13 Atom     -1.089116
   14 Atom    -18.372750
   15 Atom    -11.462174
   16 Atom    -14.811169
   17 Atom     -1.127657
   18 Atom     -1.132285
   19 Atom     -1.105243
   20 Atom    -14.808185
   21 Atom     -1.119163
   22 Atom     -1.108836
   23 Atom     -1.126845
   24 Atom    -18.376020
 -----------------------------------------------------------------
 Unable to Open any file for archive entry.
 1\1\GINC-IRENE4024\SP\RwB97XD\GenECP\C10H11B1N2\PENASFRA\10-Apr-2024\0
 \\# wb97xd/genecp scrf=(solvent=toluene,pcm) nosymm pop=(chelpg) scfcy
 c=300\\me_cinnoline_chelpg\\0,1\C,0,-3.991718,0.023547,0.655276\C,0,-2
 .695254,0.025623,0.20271\C,0,-2.116237,1.287498,-0.118594\C,0,-2.83850
 9,2.493612,0.036354\C,0,-4.16805,2.441583,0.525835\C,0,-4.722936,1.228
 473,0.8239\H,0,-4.482071,-0.91364,0.900803\C,0,-2.153843,3.664901,-0.3
 27217\H,0,-4.727567,3.362162,0.650058\H,0,-5.741376,1.178295,1.193206\
 C,0,-0.872413,3.53875,-0.794372\H,0,-2.625108,4.638046,-0.244162\H,0,-
 0.285108,4.398529,-1.093401\N,0,-0.842062,1.255368,-0.59875\B,0,-1.798
 765,-1.266441,0.032768\C,0,-0.771356,-1.636598,1.156824\H,0,0.079,-2.2
 13667,0.782867\H,0,-0.411939,-0.782007,1.733866\H,0,-1.309173,-2.29526
 1,1.857271\C,0,-2.025132,-2.179811,-1.221375\H,0,-3.076323,-2.250015,-
 1.518051\H,0,-1.51176,-1.677764,-2.055085\H,0,-1.597061,-3.181455,-1.1
 3242\N,0,-0.234661,2.348223,-0.926301\\Version=AS64L-G16RevC.02\HF=-52
 1.9781071\RMSD=9.011e-09\Dipole=-1.5935833,0.5620907,0.5291632\Quadrup
 ole=4.380755,5.1236268,-9.5043819,-6.0053921,-2.4260789,-0.1324476\PG=
 C01 [X(C10H11B1N2)]\\@
 The archive entry for this job was punched.


 IF YOU BELIEVE CERTAIN WORDS, YOU BELIEVE THEIR HIDDEN ARGUMENTS.
 WHEN YOU BELIEVE SOMETHING IS RIGHT OR WRONG, TRUE OR FALSE, 
 YOU BELIEVE THE ASSUMPTIONS IN THE WORDS WHICH EXPRESS THE ARGUMENTS.
 SUCH ASSUMPTIONS ARE OFTEN FULL OF HOLES, BUT REMAIN MOST PRECIOUS 
 TO THE CONVINCED.

                 -- THE OPEN-ENDED PROOF FROM THE PANOPLIA PROPHETICA
                    CHILDREN OF DUNE BY FRANK HERBERT
 Job cpu time:       0 days  0 hours 42 minutes 34.2 seconds.
 Elapsed time:       0 days  0 hours  0 minutes 26.5 seconds.
 File lengths (MBytes):  RWF=    138 Int=      0 D2E=      0 Chk=      9 Scr=      1
 Normal termination of Gaussian 16 at Wed Apr 10 14:34:46 2024.
