 Entering Gaussian System, Link 0=/ccc/products/gaussian-16-C.02/system/default/g16/g16
 Input=me_dimethylaniline_chelpg.gjf
 Output=me_dimethylaniline_chelpg.log
 Initial command:
 /ccc/products/gaussian-16-C.02/system/default/g16/l1.exe "/ccc/scratch/cont003/gen7343/penasfra/flp/b-n_flp/me_dimethylaniline/Reactant/Gau-1537279.inp" -scrdir="/ccc/scratch/cont003/gen7343/penasfra/flp/b-n_flp/me_dimethylaniline/Reactant/"
 Entering Link 1 = /ccc/products/gaussian-16-C.02/system/default/g16/l1.exe PID=   1537328.
  
 Copyright (c) 1988-2021, Gaussian, Inc.  All Rights Reserved.
  
 This is part of the Gaussian(R) 16 program.  It is based on
 the Gaussian(R) 09 system (copyright 2009, Gaussian, Inc.),
 the Gaussian(R) 03 system (copyright 2003, Gaussian, Inc.),
 the Gaussian(R) 98 system (copyright 1998, Gaussian, Inc.),
 the Gaussian(R) 94 system (copyright 1995, Gaussian, Inc.),
 the Gaussian 92(TM) system (copyright 1992, Gaussian, Inc.),
 the Gaussian 90(TM) system (copyright 1990, Gaussian, Inc.),
 the Gaussian 88(TM) system (copyright 1988, Gaussian, Inc.),
 the Gaussian 86(TM) system (copyright 1986, Carnegie Mellon
 University), and the Gaussian 82(TM) system (copyright 1983,
 Carnegie Mellon University). Gaussian is a federally registered
 trademark of Gaussian, Inc.
  
 This software contains proprietary and confidential information,
 including trade secrets, belonging to Gaussian, Inc.
  
 This software is provided under written license and may be
 used, copied, transmitted, or stored only in accord with that
 written license.
  
 The following legend is applicable only to US Government
 contracts under FAR:
  
                    RESTRICTED RIGHTS LEGEND
  
 Use, reproduction and disclosure by the US Government is
 subject to restrictions as set forth in subparagraphs (a)
 and (c) of the Commercial Computer Software - Restricted
 Rights clause in FAR 52.227-19.
  
 Gaussian, Inc.
 340 Quinnipiac St., Bldg. 40, Wallingford CT 06492
  
  
 ---------------------------------------------------------------
 Warning -- This program may not be used in any manner that
 competes with the business of Gaussian, Inc. or will provide
 assistance to any competitor of Gaussian, Inc.  The licensee
 of this program is prohibited from giving any competitor of
 Gaussian, Inc. access to this program.  By using this program,
 the user acknowledges that Gaussian, Inc. is engaged in the
 business of creating and licensing software in the field of
 computational chemistry and represents and warrants to the
 licensee that it is not a competitor of Gaussian, Inc. and that
 it will not use this program in any manner prohibited above.
 ---------------------------------------------------------------
  

 Cite this work as:
 Gaussian 16, Revision C.02,
 M. J. Frisch, G. W. Trucks, H. B. Schlegel, G. E. Scuseria, 
 M. A. Robb, J. R. Cheeseman, G. Scalmani, V. Barone, 
 G. A. Petersson, H. Nakatsuji, X. Li, M. Caricato, A. V. Marenich, 
 J. Bloino, B. G. Janesko, R. Gomperts, B. Mennucci, H. P. Hratchian, 
 J. V. Ortiz, A. F. Izmaylov, J. L. Sonnenberg, D. Williams-Young, 
 F. Ding, F. Lipparini, F. Egidi, J. Goings, B. Peng, A. Petrone, 
 T. Henderson, D. Ranasinghe, V. G. Zakrzewski, J. Gao, N. Rega, 
 G. Zheng, W. Liang, M. Hada, M. Ehara, K. Toyota, R. Fukuda, 
 J. Hasegawa, M. Ishida, T. Nakajima, Y. Honda, O. Kitao, H. Nakai, 
 T. Vreven, K. Throssell, J. A. Montgomery, Jr., J. E. Peralta, 
 F. Ogliaro, M. J. Bearpark, J. J. Heyd, E. N. Brothers, K. N. Kudin, 
 V. N. Staroverov, T. A. Keith, R. Kobayashi, J. Normand, 
 K. Raghavachari, A. P. Rendell, J. C. Burant, S. S. Iyengar, 
 J. Tomasi, M. Cossi, J. M. Millam, M. Klene, C. Adamo, R. Cammi, 
 J. W. Ochterski, R. L. Martin, K. Morokuma, O. Farkas, 
 J. B. Foresman, and D. J. Fox, Gaussian, Inc., Wallingford CT, 2019.
 
 ******************************************
 Gaussian 16:  AS64L-G16RevC.02  7-Dec-2021
                 9-Apr-2024 
 ******************************************
 %nprocshared=128
 Will use up to  128 processors via shared memory.
 %mem=30GB
 %chk=me_dimethylaniline_chelpg.chk
 ----------------------------------------------------------------------
 # wb97xd/genecp scrf=(solvent=toluene,pcm) nosymm pop=(chelpg) scfcyc=
 300
 ----------------------------------------------------------------------
 1/38=1,172=1/1;
 2/12=2,15=1,17=6,18=5,40=1/2;
 3/5=7,11=2,16=1,17=8,25=1,30=1,70=2201,72=13,74=-58/1,2,3;
 4//1;
 5/5=2,7=300,38=5,53=13/2;
 6/7=2,8=2,9=2,10=2,15=8,20=3,28=1/1,2;
 99/5=1,9=1/99;
 -------------------------
 me_dimethylaniline_chelpg
 -------------------------
 Symbolic Z-matrix:
 Charge =  0 Multiplicity = 1
 C                    -0.66498   0.91425   0.76012 
 C                     0.71135   1.0715    0.86791 
 C                     1.38269   2.20928   0.39861 
 C                     0.59677   3.2722   -0.11946 
 C                    -0.79146   3.10931  -0.23251 
 C                    -1.40814   1.93875   0.19029 
 H                    -1.14639   0.00804   1.10892 
 H                     1.29553   0.26107   1.29335 
 H                    -1.4054    3.90719  -0.62998 
 H                    -2.48469   1.84352   0.09353 
 N                     1.21083   4.46285  -0.51739 
 B                     2.94122   2.09532   0.28024 
 C                     2.14152   5.11571   0.3888 
 H                     2.52261   4.41239   1.12763 
 H                     2.99118   5.53075  -0.16161 
 H                     1.64679   5.93452   0.93293 
 C                     0.45095   5.41242  -1.30147 
 H                    -0.04916   4.91094  -2.13158 
 H                    -0.30238   5.9567   -0.70877 
 H                     1.14117   6.14804  -1.7207 
 C                     3.73676   2.67701  -0.95225 
 H                     3.11455   3.09728  -1.74381 
 H                     4.42052   3.46448  -0.60813 
 H                     4.3841    1.89667  -1.37119 
 C                     3.76094   1.25525   1.33891 
 H                     3.90983   0.2446    0.93183 
 H                     4.76706   1.66223   1.48413 
 H                     3.27943   1.14348   2.3137 
 
                          Input orientation:                          
 ---------------------------------------------------------------------
 Center     Atomic      Atomic             Coordinates (Angstroms)
 Number     Number       Type             X           Y           Z
 ---------------------------------------------------------------------
      1          6           0       -0.664978    0.914250    0.760120
      2          6           0        0.711347    1.071497    0.867911
      3          6           0        1.382688    2.209278    0.398608
      4          6           0        0.596768    3.272198   -0.119459
      5          6           0       -0.791463    3.109306   -0.232511
      6          6           0       -1.408137    1.938751    0.190286
      7          1           0       -1.146392    0.008043    1.108922
      8          1           0        1.295528    0.261068    1.293351
      9          1           0       -1.405398    3.907193   -0.629976
     10          1           0       -2.484688    1.843518    0.093526
     11          7           0        1.210831    4.462845   -0.517390
     12          5           0        2.941217    2.095318    0.280240
     13          6           0        2.141516    5.115714    0.388801
     14          1           0        2.522605    4.412386    1.127632
     15          1           0        2.991182    5.530753   -0.161609
     16          1           0        1.646785    5.934521    0.932928
     17          6           0        0.450953    5.412415   -1.301467
     18          1           0       -0.049160    4.910938   -2.131578
     19          1           0       -0.302378    5.956702   -0.708770
     20          1           0        1.141173    6.148042   -1.720704
     21          6           0        3.736758    2.677009   -0.952249
     22          1           0        3.114554    3.097282   -1.743810
     23          1           0        4.420522    3.464484   -0.608134
     24          1           0        4.384098    1.896668   -1.371191
     25          6           0        3.760943    1.255249    1.338909
     26          1           0        3.909831    0.244598    0.931832
     27          1           0        4.767060    1.662230    1.484134
     28          1           0        3.279433    1.143484    2.313703
 ---------------------------------------------------------------------
                    Distance matrix (angstroms):
                    1          2          3          4          5
     1  C    0.000000
     2  C    1.389466   0.000000
     3  C    2.449638   1.401959   0.000000
     4  C    2.815241   2.414770   1.419811   0.000000
     5  C    2.412382   2.760803   2.436246   1.402319   0.000000
     6  C    1.388020   2.388204   2.811634   2.427688   1.388972
     7  H    1.083805   2.154116   3.427277   3.899004   3.397536
     8  H    2.134143   1.085846   2.145620   3.398706   3.846589
     9  H    3.382055   3.842583   3.422619   2.161600   1.082367
    10  H    2.149240   3.377918   3.896595   3.403213   2.139049
    11  N    4.212270   3.697267   2.438678   1.397520   2.433599
    12  B    3.824899   2.523071   1.567166   2.653535   3.901793
    13  C    5.066220   4.316320   3.003879   2.458277   3.607502
    14  H    4.746863   3.809153   2.585454   2.562052   3.811962
    15  H    5.960637   5.112976   3.732733   3.291818   4.491863
    16  H    5.529668   4.952603   3.772622   3.049265   3.909622
    17  C    5.072369   4.859792   3.744125   2.449272   2.826761
    18  H    4.971385   4.931188   3.968753   2.674194   2.720909
    19  H    5.264545   5.232474   4.255458   2.891766   2.928087
    20  H    6.067063   5.714629   4.479249   3.336292   3.896629
    21  C    5.041310   3.878629   2.754130   3.302624   4.605398
    22  H    5.031914   4.086599   2.894454   3.001393   4.188214
    23  H    5.851335   4.654361   3.437660   3.859647   5.237560
    24  H    5.567836   4.379907   3.498339   4.219335   5.436314
    25  C    4.476612   3.091220   2.729548   4.025782   5.160551
    26  H    4.626748   3.304262   3.245111   4.609551   5.627114
    27  H    5.530887   4.144575   3.596054   4.749194   5.994838
    28  H    4.245533   2.947976   2.898473   4.200999   5.188435
                    6          7          8          9         10
     6  C    0.000000
     7  H    2.154074   0.000000
     8  H    3.367666   2.461912   0.000000
     9  H    2.132511   4.277174   4.928328   0.000000
    10  H    1.085078   2.488179   4.270101   2.438663   0.000000
    11  N    3.705516   5.295909   4.576121   2.676953   4.570662
    12  B    4.353101   4.663902   2.664425   4.796295   5.434953
    13  C    4.767865   6.116961   5.010139   3.883172   5.674171
    14  H    4.737955   5.732375   4.332046   4.332853   5.722014
    15  H    5.690370   7.016701   5.723786   4.710120   6.606508
    16  H    5.084313   6.554079   5.695731   3.983535   5.874519
    17  C    4.212824   6.129333   5.829474   2.482465   4.827113
    18  H    4.008961   5.978556   5.929554   2.258693   4.504659
    19  H    4.263207   6.277174   6.245161   2.328808   4.724874
    20  H    5.279109   7.137179   6.615498   3.563161   5.913309
    21  C    5.321687   5.934388   4.103547   5.297073   6.363548
    22  H    5.053480   5.986413   4.536222   4.725098   6.024885
    23  H    6.077714   6.773906   4.862418   5.842757   7.127537
    24  H    5.999164   6.348558   4.394796   6.173320   7.023421
    25  C    5.339091   5.068565   2.658711   6.131916   6.395697
    26  H    5.630349   5.064850   2.639232   6.641198   6.644485
    27  H    6.315344   6.151913   3.748491   6.899895   7.386102
    28  H    5.207174   4.725320   2.399095   6.184737   6.216456
                   11         12         13         14         15
    11  N    0.000000
    12  B    3.039018   0.000000
    13  C    1.453821   3.126356   0.000000
    14  H    2.104613   2.502421   1.088931   0.000000
    15  H    2.106337   3.464093   1.094139   1.769873   0.000000
    16  H    2.111707   4.103783   1.100581   1.766880   1.780012
    17  C    1.447023   4.439183   2.408950   3.345493   2.786762
    18  H    2.096179   4.763081   3.345640   4.181504   3.675409
    19  H    2.134956   5.139001   2.807942   3.706456   3.365762
    20  H    2.071885   4.865029   2.552724   3.610246   2.496869
    21  C    3.123879   1.578062   3.207880   2.968435   3.053662
    22  H    2.644434   2.265117   3.093364   3.213266   2.905230
    23  H    3.362600   2.202764   2.985684   2.741075   2.551836
    24  H    4.169396   2.201952   4.299884   4.004761   4.075522
    25  C    4.498621   1.580648   4.292836   3.397887   4.596088
    26  H    5.213296   2.188138   5.210527   4.396952   5.475670
    27  H    4.949374   2.229491   4.474348   3.567636   4.563736
    28  H    4.828287   2.270540   4.558367   3.558830   5.045631
                   16         17         18         19         20
    16  H    0.000000
    17  C    2.587495   0.000000
    18  H    3.648993   1.091181   0.000000
    19  H    2.548510   1.102291   1.783851   0.000000
    20  H    2.709797   1.092387   1.765258   1.773263   0.000000
    21  C    4.305028   4.289629   4.551311   5.208674   4.401779
    22  H    4.167637   3.556723   3.667260   4.574168   3.633442
    23  H    4.021141   4.475782   4.938742   5.341073   4.381030
    24  H    5.395007   5.275886   5.414590   6.235843   5.358442
    25  C    5.150735   5.933772   6.318641   6.542723   6.337496
    26  H    6.123447   6.607404   6.843451   7.284395   7.039323
    27  H    5.319061   6.360208   6.842766   6.996465   6.598527
    28  H    5.246534   6.268455   6.710720   6.718019   6.774526
                   21         22         23         24         25
    21  C    0.000000
    22  H    1.091025   0.000000
    23  H    1.098210   1.769223   0.000000
    24  H    1.097039   1.786634   1.744027   0.000000
    25  C    2.696552   3.648844   3.017738   2.853836   0.000000
    26  H    3.081613   3.991157   3.605547   2.873705   1.099679
    27  H    2.833242   3.899971   2.783127   2.890416   1.094986
    28  H    3.636934   4.506431   3.902084   3.919951   1.092962
                   26         27         28
    26  H    0.000000
    27  H    1.746299   0.000000
    28  H    1.764926   1.780538   0.000000
 Symmetry turned off by external request.
 Stoichiometry    C10H16BN
 Framework group  C1[X(C10H16BN)]
 Deg. of freedom    78
 Full point group                 C1      NOp   1
 Rotational constants (GHZ):           1.0311125           0.9645337           0.5546429
 General basis read from cards:  (5D, 7F)
 ======================================================================================================
                                       Pseudopotential Parameters
 ======================================================================================================
  Center     Atomic      Valence      Angular      Power
  Number     Number     Electrons     Momentum     of R      Exponent        Coefficient   SO-Coeffient
 ======================================================================================================
    1          6
                                   No pseudopotential on this center.
    2          6
                                   No pseudopotential on this center.
    3          6
                                   No pseudopotential on this center.
    4          6
                                   No pseudopotential on this center.
    5          6
                                   No pseudopotential on this center.
    6          6
                                   No pseudopotential on this center.
    7          1
                                   No pseudopotential on this center.
    8          1
                                   No pseudopotential on this center.
    9          1
                                   No pseudopotential on this center.
   10          1
                                   No pseudopotential on this center.
   11          7
                                   No pseudopotential on this center.
   12          5
                                   No pseudopotential on this center.
   13          6
                                   No pseudopotential on this center.
   14          1
                                   No pseudopotential on this center.
   15          1
                                   No pseudopotential on this center.
   16          1
                                   No pseudopotential on this center.
   17          6
                                   No pseudopotential on this center.
   18          1
                                   No pseudopotential on this center.
   19          1
                                   No pseudopotential on this center.
   20          1
                                   No pseudopotential on this center.
   21          6
                                   No pseudopotential on this center.
   22          1
                                   No pseudopotential on this center.
   23          1
                                   No pseudopotential on this center.
   24          1
                                   No pseudopotential on this center.
   25          6
                                   No pseudopotential on this center.
   26          1
                                   No pseudopotential on this center.
   27          1
                                   No pseudopotential on this center.
   28          1
                                   No pseudopotential on this center.
 ======================================================================================================
   376 basis functions,   576 primitive gaussians,   388 cartesian basis functions
    44 alpha electrons       44 beta electrons
       nuclear repulsion energy       682.3670214901 Hartrees.
 NAtoms=   28 NActive=   28 NUniq=   28 SFac= 1.00D+00 NAtFMM=   60 NAOKFM=F Big=F
 Integral buffers will be    131072 words long.
 Raffenetti 2 integral format.
 Two-electron integral symmetry is turned off.
 Nuclear repulsion after empirical dispersion term =      682.3466186620 Hartrees.
 ------------------------------------------------------------------------------
 Polarizable Continuum Model (PCM)
 =================================
 Model                : PCM.
 Atomic radii         : UFF (Universal Force Field).
 Polarization charges : Total charges.
 Charge compensation  : None.
 Solution method      : On-the-fly selection.
 Cavity type          : Scaled VdW (van der Waals Surface) (Alpha=1.100).
 Cavity algorithm     : GePol (No added spheres)
                        Default sphere list used, NSphG=   28.
                        Lebedev-Laikov grids with approx.  5.0 points / Ang**2.
                        Smoothing algorithm: York/Karplus (Gamma=1.0000).
                        Polarization charges: spherical gaussians, with
                                              point-specific exponents (IZeta= 3).
                        Self-potential: point-specific (ISelfS= 7).
                        Self-field    : sphere-specific E.n sum rule (ISelfD= 2).
 Solvent              : Toluene, Eps=   2.374100 Eps(inf)=   2.238315
 ------------------------------------------------------------------------------
 One-electron integrals computed using PRISM.
   1 Symmetry operations used in ECPInt.
 ECPInt:  NShTT=   11628 NPrTT=   36310 LenC2=   11271 LenP2D=   26637.
 LDataN:  DoStor=T MaxTD1= 4 Len=   56
 Number of processors reduced to 112 by ecpmxn.
 NBasis=   376 RedAO= T EigKep=  1.12D-06  NBF=   376
 NBsUse=   375 1.00D-06 EigRej=  4.17D-07 NBFU=   375
 ExpMin= 3.15D-02 ExpMax= 6.29D+03 ExpMxC= 9.49D+02 IAcc=3 IRadAn=         5 AccDes= 0.00D+00
 Harris functional with IExCor= 4639 and IRadAn=       5 diagonalized for initial guess.
 HarFok:  IExCor= 4639 AccDes= 0.00D+00 IRadAn=         5 IDoV= 1 UseB2=F ITyADJ=14
 ICtDFT=  3500011 ScaDFX=  1.000000  1.000000  1.000000  1.000000
 FoFCou: FMM=F IPFlag=           0 FMFlag=      100000 FMFlg1=           0
         NFxFlg=           0 DoJE=T BraDBF=F KetDBF=T FulRan=T
         wScrn=  0.000000 ICntrl=       500 IOpCl=  0 I1Cent=   200000004 NGrid=           0
         NMat0=    1 NMatS0=      1 NMatT0=    0 NMatD0=    1 NMtDS0=    0 NMtDT0=    0
 Symmetry not used in FoFCou.
 Requested convergence on RMS density matrix=1.00D-08 within 300 cycles.
 Requested convergence on MAX density matrix=1.00D-06.
 Requested convergence on             energy=1.00D-06.
 No special actions if energy rises.
 Inv3:  Mode=1 IEnd=    11796867.
 Iteration    1 A*A^-1 deviation from unit magnitude is 4.44D-15 for   1972.
 Iteration    1 A*A^-1 deviation from orthogonality  is 1.66D-15 for   1387    400.
 Iteration    1 A^-1*A deviation from unit magnitude is 4.66D-15 for   1972.
 Iteration    1 A^-1*A deviation from orthogonality  is 1.30D-15 for   1981   1943.
 Error on total polarization charges =  0.00994
 SCF Done:  E(RwB97XD) =  -470.278103138     A.U. after   17 cycles
            NFock= 17  Conv=0.31D-08     -V/T= 2.0047

 **********************************************************************

            Population analysis using the SCF Density.

 **********************************************************************

 Alpha  occ. eigenvalues --  -14.44479 -10.32763 -10.30949 -10.30751 -10.28887
 Alpha  occ. eigenvalues --  -10.28680 -10.27962 -10.27622 -10.26350 -10.24587
 Alpha  occ. eigenvalues --  -10.24181  -6.83921  -1.05008  -0.94723  -0.85057
 Alpha  occ. eigenvalues --   -0.84595  -0.81507  -0.80126  -0.76624  -0.75213
 Alpha  occ. eigenvalues --   -0.69438  -0.66889  -0.61883  -0.56810  -0.56353
 Alpha  occ. eigenvalues --   -0.55782  -0.53811  -0.51788  -0.51155  -0.50000
 Alpha  occ. eigenvalues --   -0.49159  -0.48748  -0.47329  -0.46437  -0.46040
 Alpha  occ. eigenvalues --   -0.45424  -0.45149  -0.44797  -0.42939  -0.38803
 Alpha  occ. eigenvalues --   -0.38227  -0.35990  -0.32751  -0.27323
 Alpha virt. eigenvalues --    0.02261   0.03818   0.04853   0.04992   0.05819
 Alpha virt. eigenvalues --    0.06478   0.06488   0.06653   0.07563   0.07926
 Alpha virt. eigenvalues --    0.08606   0.08823   0.08962   0.09679   0.10269
 Alpha virt. eigenvalues --    0.11043   0.11398   0.11526   0.11963   0.12176
 Alpha virt. eigenvalues --    0.13511   0.14129   0.14928   0.15206   0.15448
 Alpha virt. eigenvalues --    0.16069   0.16878   0.17161   0.17448   0.17834
 Alpha virt. eigenvalues --    0.18083   0.18427   0.18695   0.19050   0.19739
 Alpha virt. eigenvalues --    0.19958   0.20072   0.20189   0.20423   0.20614
 Alpha virt. eigenvalues --    0.21177   0.21628   0.22073   0.22346   0.22563
 Alpha virt. eigenvalues --    0.22849   0.23349   0.23970   0.24121   0.24643
 Alpha virt. eigenvalues --    0.24778   0.25258   0.25622   0.26439   0.26561
 Alpha virt. eigenvalues --    0.26707   0.27416   0.27974   0.28536   0.28771
 Alpha virt. eigenvalues --    0.28890   0.29474   0.30551   0.30826   0.31851
 Alpha virt. eigenvalues --    0.32388   0.32562   0.33657   0.33904   0.34949
 Alpha virt. eigenvalues --    0.35363   0.36238   0.36413   0.36534   0.37231
 Alpha virt. eigenvalues --    0.37494   0.37952   0.38654   0.39108   0.39511
 Alpha virt. eigenvalues --    0.40230   0.40690   0.41115   0.42391   0.42437
 Alpha virt. eigenvalues --    0.43471   0.44361   0.44641   0.45457   0.46923
 Alpha virt. eigenvalues --    0.49293   0.49861   0.50028   0.53260   0.54253
 Alpha virt. eigenvalues --    0.56100   0.57090   0.58440   0.58978   0.60224
 Alpha virt. eigenvalues --    0.60713   0.63102   0.63224   0.64132   0.65226
 Alpha virt. eigenvalues --    0.65268   0.66023   0.66656   0.67743   0.68478
 Alpha virt. eigenvalues --    0.68909   0.69619   0.70502   0.71106   0.72177
 Alpha virt. eigenvalues --    0.73573   0.74271   0.75065   0.75477   0.76321
 Alpha virt. eigenvalues --    0.76717   0.77362   0.77864   0.78643   0.79071
 Alpha virt. eigenvalues --    0.79599   0.80469   0.81271   0.83108   0.83712
 Alpha virt. eigenvalues --    0.84517   0.85292   0.85975   0.86222   0.87530
 Alpha virt. eigenvalues --    0.87820   0.89659   0.90828   0.91866   0.93152
 Alpha virt. eigenvalues --    0.95241   0.95343   0.96677   0.97302   0.98415
 Alpha virt. eigenvalues --    1.00002   1.00725   1.02715   1.03920   1.04448
 Alpha virt. eigenvalues --    1.06127   1.07059   1.08166   1.09865   1.10130
 Alpha virt. eigenvalues --    1.12252   1.14629   1.16416   1.18171   1.19475
 Alpha virt. eigenvalues --    1.20675   1.20909   1.23082   1.24431   1.26613
 Alpha virt. eigenvalues --    1.33965   1.35175   1.37594   1.38737   1.39262
 Alpha virt. eigenvalues --    1.40111   1.42940   1.47702   1.50555   1.51443
 Alpha virt. eigenvalues --    1.52597   1.55279   1.58316   1.58955   1.60041
 Alpha virt. eigenvalues --    1.60690   1.62174   1.62491   1.63121   1.64302
 Alpha virt. eigenvalues --    1.64855   1.65978   1.66473   1.67215   1.70195
 Alpha virt. eigenvalues --    1.70620   1.71269   1.73044   1.73581   1.75029
 Alpha virt. eigenvalues --    1.76570   1.77617   1.79126   1.79996   1.81018
 Alpha virt. eigenvalues --    1.81336   1.82664   1.83430   1.83938   1.85413
 Alpha virt. eigenvalues --    1.85836   1.86595   1.90323   1.91003   1.91796
 Alpha virt. eigenvalues --    1.94540   1.96314   1.97495   1.99067   2.00420
 Alpha virt. eigenvalues --    2.01956   2.03504   2.05552   2.06107   2.06848
 Alpha virt. eigenvalues --    2.08527   2.10300   2.10545   2.14146   2.15189
 Alpha virt. eigenvalues --    2.15723   2.18287   2.19349   2.21216   2.22998
 Alpha virt. eigenvalues --    2.23733   2.26077   2.26971   2.31099   2.31813
 Alpha virt. eigenvalues --    2.34657   2.35764   2.37636   2.40734   2.43094
 Alpha virt. eigenvalues --    2.46567   2.48333   2.52473   2.53904   2.55138
 Alpha virt. eigenvalues --    2.55318   2.56204   2.57385   2.58397   2.60077
 Alpha virt. eigenvalues --    2.60691   2.61924   2.64233   2.65083   2.65772
 Alpha virt. eigenvalues --    2.66982   2.68030   2.69209   2.70517   2.72461
 Alpha virt. eigenvalues --    2.73580   2.75059   2.76405   2.77995   2.78732
 Alpha virt. eigenvalues --    2.79979   2.80557   2.81057   2.82361   2.83444
 Alpha virt. eigenvalues --    2.83635   2.85070   2.87420   2.88371   2.89338
 Alpha virt. eigenvalues --    2.91051   2.91871   2.95658   2.95839   2.98423
 Alpha virt. eigenvalues --    2.99709   3.01387   3.06622   3.08031   3.10441
 Alpha virt. eigenvalues --    3.11339   3.12457   3.20172   3.23271   3.25406
 Alpha virt. eigenvalues --    3.30209   3.35396   3.47693   3.48603   3.53014
 Alpha virt. eigenvalues --    3.58965   3.64746   3.67815   3.68554   3.73469
 Alpha virt. eigenvalues --    3.78840   3.82771   3.86390   3.88458   3.90249
 Alpha virt. eigenvalues --    3.91443   3.94227   3.94502   3.97655   4.04744
 Alpha virt. eigenvalues --    4.07382   4.11045   4.17192   4.24596   4.27868
 Alpha virt. eigenvalues --    4.33351   4.95434   4.99079   5.16126  14.81928
 Alpha virt. eigenvalues --   23.77040  24.08007  24.09556  24.09908  24.10983
 Alpha virt. eigenvalues --   24.14423  24.18818  24.19940  24.23888  24.33312
 Alpha virt. eigenvalues --   35.74287
          Condensed to atoms (all electrons):
               1          2          3          4          5          6
     1  C    7.348453  -0.207941  -0.946741   0.482897  -0.990299   0.545154
     2  C   -0.207941   9.905374   0.286363  -4.486158   0.003188  -0.311360
     3  C   -0.946741   0.286363  14.398265  -3.502385  -5.433233   0.252668
     4  C    0.482897  -4.486158  -3.502385  14.829977   1.032937  -1.179109
     5  C   -0.990299   0.003188  -5.433233   1.032937  11.811976   0.073176
     6  C    0.545154  -0.311360   0.252668  -1.179109   0.073176   6.834914
     7  H    0.419615  -0.064876   0.034806   0.023479  -0.047821  -0.029211
     8  H   -0.080421   0.426390  -0.107947   0.017537   0.054718   0.007481
     9  H   -0.008438   0.028715  -0.039426  -0.048536   0.506594  -0.078664
    10  H   -0.039481  -0.021172   0.018493   0.060648  -0.045798   0.347675
    11  N    0.019881   0.143994   0.477253  -0.296438  -0.752595   0.035770
    12  B    0.020189  -0.149069   0.026199   0.203424   0.166137   0.090959
    13  C    0.021567   0.072172   0.081725  -0.119770  -0.162931  -0.014965
    14  H   -0.002825  -0.047310   0.004792   0.068040  -0.001579  -0.009347
    15  H    0.002370   0.024105   0.035508   0.001275  -0.030822   0.000951
    16  H    0.002037  -0.016447  -0.012655  -0.007604   0.009802  -0.000567
    17  C   -0.016706   0.064526   0.060545   0.010474  -0.182724  -0.230829
    18  H    0.005237   0.002883   0.008666  -0.000210  -0.007884  -0.024276
    19  H    0.000740  -0.008055  -0.017354  -0.029200   0.025375   0.025464
    20  H   -0.003789   0.005233  -0.011022   0.013104   0.035974  -0.004506
    21  C    0.023846  -0.039603  -0.057679   0.032180  -0.038721   0.007161
    22  H    0.012998   0.029402   0.085296  -0.088045  -0.052738   0.002752
    23  H    0.003274   0.050108   0.020599  -0.027315  -0.000204  -0.003334
    24  H   -0.002319  -0.033207   0.027779   0.000867  -0.002803   0.000109
    25  C   -0.163076   0.124482  -0.169540  -0.098612   0.071298   0.014670
    26  H   -0.007579  -0.018080  -0.037412   0.044614   0.015391  -0.006869
    27  H   -0.005213   0.021411  -0.034007   0.007493   0.008683  -0.001928
    28  H   -0.022398  -0.038599   0.084734  -0.011855  -0.003691  -0.001139
               7          8          9         10         11         12
     1  C    0.419615  -0.080421  -0.008438  -0.039481   0.019881   0.020189
     2  C   -0.064876   0.426390   0.028715  -0.021172   0.143994  -0.149069
     3  C    0.034806  -0.107947  -0.039426   0.018493   0.477253   0.026199
     4  C    0.023479   0.017537  -0.048536   0.060648  -0.296438   0.203424
     5  C   -0.047821   0.054718   0.506594  -0.045798  -0.752595   0.166137
     6  C   -0.029211   0.007481  -0.078664   0.347675   0.035770   0.090959
     7  H    0.471692  -0.009871   0.000359  -0.007019   0.000387  -0.001107
     8  H   -0.009871   0.508972   0.000255   0.001261  -0.005588  -0.049728
     9  H    0.000359   0.000255   0.502826  -0.009215  -0.029387  -0.004833
    10  H   -0.007019   0.001261  -0.009215   0.467836  -0.002254  -0.000433
    11  N    0.000387  -0.005588  -0.029387  -0.002254   7.110412  -0.001076
    12  B   -0.001107  -0.049728  -0.004833  -0.000433  -0.001076   4.950359
    13  C    0.000512  -0.000639  -0.002319  -0.000086   0.179239  -0.027173
    14  H   -0.000001   0.001506   0.000314  -0.000044  -0.060179  -0.108990
    15  H    0.000024  -0.000050  -0.000529   0.000074  -0.060971   0.010825
    16  H    0.000093   0.000021   0.001792  -0.000366  -0.064649   0.007035
    17  C   -0.001462   0.000061   0.009143   0.002997   0.239254  -0.020274
    18  H    0.000106  -0.000316  -0.009381  -0.000356  -0.046805  -0.006956
    19  H   -0.000024   0.000058  -0.005396   0.000562  -0.057334   0.011278
    20  H   -0.000132   0.000147   0.004301   0.000279  -0.069704  -0.008258
    21  C    0.000148   0.002881  -0.000400   0.000064  -0.010047   0.336670
    22  H    0.000278  -0.001628  -0.000952  -0.000046   0.013620  -0.112458
    23  H    0.000028  -0.001317   0.000403  -0.000027  -0.022143  -0.145000
    24  H   -0.000049  -0.000372   0.000095  -0.000035   0.002923  -0.093841
    25  C   -0.001818   0.013271   0.000879  -0.000312  -0.000412   0.206382
    26  H    0.000274  -0.002783   0.000078  -0.000077  -0.001779  -0.116856
    27  H   -0.000175   0.004076   0.000093  -0.000065   0.000338  -0.125311
    28  H   -0.000455   0.006182  -0.000042   0.000120   0.002217  -0.140602
              13         14         15         16         17         18
     1  C    0.021567  -0.002825   0.002370   0.002037  -0.016706   0.005237
     2  C    0.072172  -0.047310   0.024105  -0.016447   0.064526   0.002883
     3  C    0.081725   0.004792   0.035508  -0.012655   0.060545   0.008666
     4  C   -0.119770   0.068040   0.001275  -0.007604   0.010474  -0.000210
     5  C   -0.162931  -0.001579  -0.030822   0.009802  -0.182724  -0.007884
     6  C   -0.014965  -0.009347   0.000951  -0.000567  -0.230829  -0.024276
     7  H    0.000512  -0.000001   0.000024   0.000093  -0.001462   0.000106
     8  H   -0.000639   0.001506  -0.000050   0.000021   0.000061  -0.000316
     9  H   -0.002319   0.000314  -0.000529   0.001792   0.009143  -0.009381
    10  H   -0.000086  -0.000044   0.000074  -0.000366   0.002997  -0.000356
    11  N    0.179239  -0.060179  -0.060971  -0.064649   0.239254  -0.046805
    12  B   -0.027173  -0.108990   0.010825   0.007035  -0.020274  -0.006956
    13  C    5.377910   0.421375   0.389780   0.439876  -0.115744   0.006434
    14  H    0.421375   0.573894  -0.038288  -0.032788   0.012087  -0.001583
    15  H    0.389780  -0.038288   0.521057  -0.036147  -0.017251  -0.001780
    16  H    0.439876  -0.032788  -0.036147   0.539545   0.000780   0.000792
    17  C   -0.115744   0.012087  -0.017251   0.000780   5.348818   0.433902
    18  H    0.006434  -0.001583  -0.001780   0.000792   0.433902   0.530898
    19  H   -0.007937  -0.007149   0.001288   0.011246   0.404931  -0.046745
    20  H    0.006841   0.008563   0.001413  -0.007501   0.401600  -0.013651
    21  C   -0.051016  -0.010828   0.004241   0.002932   0.008162   0.001469
    22  H   -0.008431   0.002501   0.004843  -0.001840  -0.006281   0.002096
    23  H    0.012476   0.006922  -0.002630  -0.000698   0.004289   0.000280
    24  H   -0.001535   0.001031  -0.000964   0.000027  -0.000238   0.000256
    25  C    0.002881   0.020634  -0.008413   0.000710   0.005934  -0.000505
    26  H   -0.002314   0.001318  -0.000803   0.000104   0.000887  -0.000064
    27  H   -0.003075   0.002661  -0.000895  -0.000213   0.001176  -0.000073
    28  H   -0.000977   0.007435  -0.001425   0.000293   0.000914  -0.000069
              19         20         21         22         23         24
     1  C    0.000740  -0.003789   0.023846   0.012998   0.003274  -0.002319
     2  C   -0.008055   0.005233  -0.039603   0.029402   0.050108  -0.033207
     3  C   -0.017354  -0.011022  -0.057679   0.085296   0.020599   0.027779
     4  C   -0.029200   0.013104   0.032180  -0.088045  -0.027315   0.000867
     5  C    0.025375   0.035974  -0.038721  -0.052738  -0.000204  -0.002803
     6  C    0.025464  -0.004506   0.007161   0.002752  -0.003334   0.000109
     7  H   -0.000024  -0.000132   0.000148   0.000278   0.000028  -0.000049
     8  H    0.000058   0.000147   0.002881  -0.001628  -0.001317  -0.000372
     9  H   -0.005396   0.004301  -0.000400  -0.000952   0.000403   0.000095
    10  H    0.000562   0.000279   0.000064  -0.000046  -0.000027  -0.000035
    11  N   -0.057334  -0.069704  -0.010047   0.013620  -0.022143   0.002923
    12  B    0.011278  -0.008258   0.336670  -0.112458  -0.145000  -0.093841
    13  C   -0.007937   0.006841  -0.051016  -0.008431   0.012476  -0.001535
    14  H   -0.007149   0.008563  -0.010828   0.002501   0.006922   0.001031
    15  H    0.001288   0.001413   0.004241   0.004843  -0.002630  -0.000964
    16  H    0.011246  -0.007501   0.002932  -0.001840  -0.000698   0.000027
    17  C    0.404931   0.401600   0.008162  -0.006281   0.004289  -0.000238
    18  H   -0.046745  -0.013651   0.001469   0.002096   0.000280   0.000256
    19  H    0.572035  -0.044596  -0.001237  -0.000948  -0.000653  -0.000165
    20  H   -0.044596   0.510435  -0.000580  -0.002629   0.001998  -0.000157
    21  C   -0.001237  -0.000580   5.291717   0.427322   0.405668   0.404194
    22  H   -0.000948  -0.002629   0.427322   0.549875  -0.016954  -0.015066
    23  H   -0.000653   0.001998   0.405668  -0.016954   0.555284  -0.003774
    24  H   -0.000165  -0.000157   0.404194  -0.015066  -0.003774   0.513901
    25  C   -0.000186   0.001217  -0.085246  -0.012474   0.004739   0.020271
    26  H    0.000017   0.000102  -0.009295  -0.005985   0.004637   0.002192
    27  H    0.000012   0.000151   0.012845  -0.002484  -0.000994   0.007853
    28  H    0.000093   0.000086   0.001169  -0.005424  -0.002570  -0.000838
              25         26         27         28
     1  C   -0.163076  -0.007579  -0.005213  -0.022398
     2  C    0.124482  -0.018080   0.021411  -0.038599
     3  C   -0.169540  -0.037412  -0.034007   0.084734
     4  C   -0.098612   0.044614   0.007493  -0.011855
     5  C    0.071298   0.015391   0.008683  -0.003691
     6  C    0.014670  -0.006869  -0.001928  -0.001139
     7  H   -0.001818   0.000274  -0.000175  -0.000455
     8  H    0.013271  -0.002783   0.004076   0.006182
     9  H    0.000879   0.000078   0.000093  -0.000042
    10  H   -0.000312  -0.000077  -0.000065   0.000120
    11  N   -0.000412  -0.001779   0.000338   0.002217
    12  B    0.206382  -0.116856  -0.125311  -0.140602
    13  C    0.002881  -0.002314  -0.003075  -0.000977
    14  H    0.020634   0.001318   0.002661   0.007435
    15  H   -0.008413  -0.000803  -0.000895  -0.001425
    16  H    0.000710   0.000104  -0.000213   0.000293
    17  C    0.005934   0.000887   0.001176   0.000914
    18  H   -0.000505  -0.000064  -0.000073  -0.000069
    19  H   -0.000186   0.000017   0.000012   0.000093
    20  H    0.001217   0.000102   0.000151   0.000086
    21  C   -0.085246  -0.009295   0.012845   0.001169
    22  H   -0.012474  -0.005985  -0.002484  -0.005424
    23  H    0.004739   0.004637  -0.000994  -0.002570
    24  H    0.020271   0.002192   0.007853  -0.000838
    25  C    5.456113   0.442495   0.421662   0.426623
    26  H    0.442495   0.518840   0.005409  -0.013174
    27  H    0.421662   0.005409   0.523361  -0.014940
    28  H    0.426623  -0.013174  -0.014940   0.574251
 Mulliken charges:
               1
     1  C   -0.411035
     2  C    0.253531
     3  C    0.465711
     4  C   -0.933709
     5  C   -0.061405
     6  C   -0.342800
     7  H    0.212218
     8  H    0.215842
     9  H    0.181672
    10  H    0.226776
    11  N    0.256072
    12  B    0.082507
    13  C   -0.493879
    14  H    0.187840
    15  H    0.203213
    16  H    0.164391
    17  C   -0.418971
    18  H    0.167636
    19  H    0.173880
    20  H    0.175082
    21  C   -0.658018
    22  H    0.203401
    23  H    0.156911
    24  H    0.173860
    25  C   -0.693666
    26  H    0.186711
    27  H    0.172151
    28  H    0.154079
 Sum of Mulliken charges =  -0.00000
 Mulliken charges with hydrogens summed into heavy atoms:
               1
     1  C   -0.198817
     2  C    0.469372
     3  C    0.465711
     4  C   -0.933709
     5  C    0.120267
     6  C   -0.116024
    11  N    0.256072
    12  B    0.082507
    13  C    0.061565
    17  C    0.097627
    21  C   -0.123846
    25  C   -0.180725
 Electronic spatial extent (au):  <R**2>=           5308.5897
 Charge=             -0.0000 electrons
 Dipole moment (field-independent basis, Debye):
    X=             -0.1001    Y=              1.7181    Z=             -0.2102  Tot=              1.7338
 Quadrupole moment (field-independent basis, Debye-Ang):
   XX=            -72.1547   YY=            -58.1983   ZZ=            -77.5350
   XY=              2.0792   XZ=              1.7829   YZ=             -2.9663
 Traceless Quadrupole moment (field-independent basis, Debye-Ang):
   XX=             -2.8587   YY=             11.0977   ZZ=             -8.2390
   XY=              2.0792   XZ=              1.7829   YZ=             -2.9663
 Octapole moment (field-independent basis, Debye-Ang**2):
  XXX=           -292.7192  YYY=           -532.1339  ZZZ=            -23.2246  XYY=            -75.1650
  XXY=           -201.2364  XXZ=             -3.4745  XZZ=            -98.7674  YZZ=           -215.8104
  YYZ=            -20.8528  XYZ=              9.6121
 Hexadecapole moment (field-independent basis, Debye-Ang**3):
 XXXX=          -2211.1264 YYYY=          -4236.7030 ZZZZ=           -424.5256 XXXY=           -788.2607
 XXXZ=            -46.6879 YYYX=           -665.2048 YYYZ=             54.7082 ZZZX=            -54.1187
 ZZZY=            126.8599 XXYY=          -1106.3639 XXZZ=           -462.9564 YYZZ=           -865.6571
 XXYZ=             68.6413 YYXZ=             10.3504 ZZXY=           -271.6596
 N-N= 6.823466186620D+02 E-N=-2.455369598688D+03  KE= 4.680725055772D+02
 Breneman (CHELPG) radii used.
 Generate Potential Derived Charges using the Breneman model, NDens= 1.
 Grid spacing= 0.300 Box extension= 2.800
 NStep X,Y,Z=   44     41     35   Total possible points=       63140
 Number of Points to Fit=   16371

 **********************************************************************

            Electrostatic Properties Using The SCF Density.

 **********************************************************************

       Atomic Center    1 is at  -0.664978  0.914250  0.760120
       Atomic Center    2 is at   0.711347  1.071497  0.867911
       Atomic Center    3 is at   1.382688  2.209278  0.398608
       Atomic Center    4 is at   0.596768  3.272198 -0.119459
       Atomic Center    5 is at  -0.791463  3.109306 -0.232511
       Atomic Center    6 is at  -1.408137  1.938751  0.190286
       Atomic Center    7 is at  -1.146392  0.008043  1.108922
       Atomic Center    8 is at   1.295528  0.261068  1.293351
       Atomic Center    9 is at  -1.405398  3.907193 -0.629976
       Atomic Center   10 is at  -2.484688  1.843518  0.093526
       Atomic Center   11 is at   1.210831  4.462845 -0.517390
       Atomic Center   12 is at   2.941217  2.095318  0.280240
       Atomic Center   13 is at   2.141516  5.115714  0.388801
       Atomic Center   14 is at   2.522605  4.412386  1.127632
       Atomic Center   15 is at   2.991182  5.530753 -0.161609
       Atomic Center   16 is at   1.646785  5.934521  0.932928
       Atomic Center   17 is at   0.450953  5.412415 -1.301467
       Atomic Center   18 is at  -0.049160  4.910938 -2.131578
       Atomic Center   19 is at  -0.302378  5.956702 -0.708770
       Atomic Center   20 is at   1.141173  6.148042 -1.720704
       Atomic Center   21 is at   3.736758  2.677009 -0.952249
       Atomic Center   22 is at   3.114554  3.097282 -1.743810
       Atomic Center   23 is at   4.420522  3.464484 -0.608134
       Atomic Center   24 is at   4.384098  1.896668 -1.371191
       Atomic Center   25 is at   3.760943  1.255249  1.338909
       Atomic Center   26 is at   3.909831  0.244598  0.931832
       Atomic Center   27 is at   4.767060  1.662230  1.484134
       Atomic Center   28 is at   3.279433  1.143484  2.313703
   16371 points will be used for fitting atomic charges
 Fitting point charges to electrostatic potential
 Charges from ESP fit, RMS=   0.00343 RRMS=   0.33782:
 ESP charges:
               1
     1  C   -0.193525
     2  C   -0.023621
     3  C   -0.350311
     4  C    0.337865
     5  C   -0.255276
     6  C   -0.048346
     7  H    0.105703
     8  H    0.081413
     9  H    0.120559
    10  H    0.096963
    11  N   -0.221801
    12  B    0.545928
    13  C    0.029977
    14  H    0.007161
    15  H    0.052827
    16  H    0.018646
    17  C   -0.125423
    18  H    0.064449
    19  H    0.060514
    20  H    0.084636
    21  C   -0.417860
    22  H    0.036623
    23  H    0.090946
    24  H    0.071099
    25  C   -0.310986
    26  H    0.063033
    27  H    0.044652
    28  H    0.034153
 Sum of ESP charges =  -0.00000
 ESP charges with hydrogens summed into heavy atoms:
               1
     1  C   -0.087821
     2  C    0.057792
     3  C   -0.350311
     4  C    0.337865
     5  C   -0.134717
     6  C    0.048617
    11  N   -0.221801
    12  B    0.545928
    13  C    0.108610
    17  C    0.084177
    21  C   -0.219192
    25  C   -0.169147
 Charge=  -0.00000 Dipole=    -0.1540     1.7157    -0.1886 Tot=     1.7329
 -----------------------------------------------------------------

              Electrostatic Properties (Atomic Units)

 -----------------------------------------------------------------
    Center     Electric         -------- Electric Field --------
               Potential          X             Y             Z
 -----------------------------------------------------------------
    1 Atom    -14.791046
    2 Atom    -14.781605
    3 Atom    -14.802773
    4 Atom    -14.736666
    5 Atom    -14.785429
    6 Atom    -14.778587
    7 Atom     -1.116457
    8 Atom     -1.117518
    9 Atom     -1.107581
   10 Atom     -1.110244
   11 Atom    -18.376802
   12 Atom    -11.475292
   13 Atom    -14.743578
   14 Atom     -1.104168
   15 Atom     -1.112141
   16 Atom     -1.112220
   17 Atom    -14.744714
   18 Atom     -1.107922
   19 Atom     -1.111911
   20 Atom     -1.106235
   21 Atom    -14.816851
   22 Atom     -1.141200
   23 Atom     -1.117638
   24 Atom     -1.125886
   25 Atom    -14.812247
   26 Atom     -1.112378
   27 Atom     -1.124840
   28 Atom     -1.132059
 -----------------------------------------------------------------
 Unable to Open any file for archive entry.
 1\1\GINC-IRENE4723\SP\RwB97XD\GenECP\C10H16B1N1\PENASFRA\09-Apr-2024\0
 \\# wb97xd/genecp scrf=(solvent=toluene,pcm) nosymm pop=(chelpg) scfcy
 c=300\\me_dimethylaniline_chelpg\\0,1\C,0,-0.664978,0.91425,0.76012\C,
 0,0.711347,1.071497,0.867911\C,0,1.382688,2.209278,0.398608\C,0,0.5967
 68,3.272198,-0.119459\C,0,-0.791463,3.109306,-0.232511\C,0,-1.408137,1
 .938751,0.190286\H,0,-1.146392,0.008043,1.108922\H,0,1.295528,0.261068
 ,1.293351\H,0,-1.405398,3.907193,-0.629976\H,0,-2.484688,1.843518,0.09
 3526\N,0,1.210831,4.462845,-0.51739\B,0,2.941217,2.095318,0.28024\C,0,
 2.141516,5.115714,0.388801\H,0,2.522605,4.412386,1.127632\H,0,2.991182
 ,5.530753,-0.161609\H,0,1.646785,5.934521,0.932928\C,0,0.450953,5.4124
 15,-1.301467\H,0,-0.04916,4.910938,-2.131578\H,0,-0.302378,5.956702,-0
 .70877\H,0,1.141173,6.148042,-1.720704\C,0,3.736758,2.677009,-0.952249
 \H,0,3.114554,3.097282,-1.74381\H,0,4.420522,3.464484,-0.608134\H,0,4.
 384098,1.896668,-1.371191\C,0,3.760943,1.255249,1.338909\H,0,3.909831,
 0.244598,0.931832\H,0,4.76706,1.66223,1.484134\H,0,3.279433,1.143484,2
 .313703\\Version=AS64L-G16RevC.02\HF=-470.2781031\RMSD=3.093e-09\Dipol
 e=-0.0393807,0.6759603,-0.0826816\Quadrupole=-2.1254035,8.250877,-6.12
 54735,1.5458571,1.3255085,-2.2054023\PG=C01 [X(C10H16B1N1)]\\@
 The archive entry for this job was punched.


 A MAN IS EXACTLY AS GREAT AS THE TIDE SURGING
 BENEATH HIM.      - BISMARCK
 Job cpu time:       0 days  0 hours 50 minutes 21.0 seconds.
 Elapsed time:       0 days  0 hours  0 minutes 30.8 seconds.
 File lengths (MBytes):  RWF=    144 Int=      0 D2E=      0 Chk=     10 Scr=      1
 Normal termination of Gaussian 16 at Tue Apr  9 18:43:54 2024.
