 Entering Gaussian System, Link 0=/ccc/products/gaussian-16-C.02/system/default/g16/g16
 Input=me_dibenzofuran_chelpg.gjf
 Output=me_dibenzofuran_chelpg.log
 Initial command:
 /ccc/products/gaussian-16-C.02/system/default/g16/l1.exe "/ccc/scratch/cont003/gen7343/penasfra/flp/b-n_flp/me_dibenzofuran/reactant/Gau-211489.inp" -scrdir="/ccc/scratch/cont003/gen7343/penasfra/flp/b-n_flp/me_dibenzofuran/reactant/"
 Entering Link 1 = /ccc/products/gaussian-16-C.02/system/default/g16/l1.exe PID=    211538.
  
 Copyright (c) 1988-2021, Gaussian, Inc.  All Rights Reserved.
  
 This is part of the Gaussian(R) 16 program.  It is based on
 the Gaussian(R) 09 system (copyright 2009, Gaussian, Inc.),
 the Gaussian(R) 03 system (copyright 2003, Gaussian, Inc.),
 the Gaussian(R) 98 system (copyright 1998, Gaussian, Inc.),
 the Gaussian(R) 94 system (copyright 1995, Gaussian, Inc.),
 the Gaussian 92(TM) system (copyright 1992, Gaussian, Inc.),
 the Gaussian 90(TM) system (copyright 1990, Gaussian, Inc.),
 the Gaussian 88(TM) system (copyright 1988, Gaussian, Inc.),
 the Gaussian 86(TM) system (copyright 1986, Carnegie Mellon
 University), and the Gaussian 82(TM) system (copyright 1983,
 Carnegie Mellon University). Gaussian is a federally registered
 trademark of Gaussian, Inc.
  
 This software contains proprietary and confidential information,
 including trade secrets, belonging to Gaussian, Inc.
  
 This software is provided under written license and may be
 used, copied, transmitted, or stored only in accord with that
 written license.
  
 The following legend is applicable only to US Government
 contracts under FAR:
  
                    RESTRICTED RIGHTS LEGEND
  
 Use, reproduction and disclosure by the US Government is
 subject to restrictions as set forth in subparagraphs (a)
 and (c) of the Commercial Computer Software - Restricted
 Rights clause in FAR 52.227-19.
  
 Gaussian, Inc.
 340 Quinnipiac St., Bldg. 40, Wallingford CT 06492
  
  
 ---------------------------------------------------------------
 Warning -- This program may not be used in any manner that
 competes with the business of Gaussian, Inc. or will provide
 assistance to any competitor of Gaussian, Inc.  The licensee
 of this program is prohibited from giving any competitor of
 Gaussian, Inc. access to this program.  By using this program,
 the user acknowledges that Gaussian, Inc. is engaged in the
 business of creating and licensing software in the field of
 computational chemistry and represents and warrants to the
 licensee that it is not a competitor of Gaussian, Inc. and that
 it will not use this program in any manner prohibited above.
 ---------------------------------------------------------------
  

 Cite this work as:
 Gaussian 16, Revision C.02,
 M. J. Frisch, G. W. Trucks, H. B. Schlegel, G. E. Scuseria, 
 M. A. Robb, J. R. Cheeseman, G. Scalmani, V. Barone, 
 G. A. Petersson, H. Nakatsuji, X. Li, M. Caricato, A. V. Marenich, 
 J. Bloino, B. G. Janesko, R. Gomperts, B. Mennucci, H. P. Hratchian, 
 J. V. Ortiz, A. F. Izmaylov, J. L. Sonnenberg, D. Williams-Young, 
 F. Ding, F. Lipparini, F. Egidi, J. Goings, B. Peng, A. Petrone, 
 T. Henderson, D. Ranasinghe, V. G. Zakrzewski, J. Gao, N. Rega, 
 G. Zheng, W. Liang, M. Hada, M. Ehara, K. Toyota, R. Fukuda, 
 J. Hasegawa, M. Ishida, T. Nakajima, Y. Honda, O. Kitao, H. Nakai, 
 T. Vreven, K. Throssell, J. A. Montgomery, Jr., J. E. Peralta, 
 F. Ogliaro, M. J. Bearpark, J. J. Heyd, E. N. Brothers, K. N. Kudin, 
 V. N. Staroverov, T. A. Keith, R. Kobayashi, J. Normand, 
 K. Raghavachari, A. P. Rendell, J. C. Burant, S. S. Iyengar, 
 J. Tomasi, M. Cossi, J. M. Millam, M. Klene, C. Adamo, R. Cammi, 
 J. W. Ochterski, R. L. Martin, K. Morokuma, O. Farkas, 
 J. B. Foresman, and D. J. Fox, Gaussian, Inc., Wallingford CT, 2019.
 
 ******************************************
 Gaussian 16:  AS64L-G16RevC.02  7-Dec-2021
                10-Apr-2024 
 ******************************************
 %nprocshared=128
 Will use up to  128 processors via shared memory.
 %mem=30GB
 %chk=me_dibenzofuran_chelpg.chk
 ----------------------------------------------------------------------
 # wb97xd/genecp scrf=(solvent=toluene,pcm) nosymm pop=(chelpg) scfcyc=
 300
 ----------------------------------------------------------------------
 1/38=1,172=1/1;
 2/12=2,15=1,17=6,18=5,40=1/2;
 3/5=7,11=2,16=1,17=8,25=1,30=1,70=2201,72=13,74=-58/1,2,3;
 4//1;
 5/5=2,7=300,38=5,53=13/2;
 6/7=2,8=2,9=2,10=2,15=8,20=3,28=1/1,2;
 99/5=1,9=1/99;
 ----------------------
 me_dibenzofuran_chelpg
 ----------------------
 Symbolic Z-matrix:
 Charge =  0 Multiplicity = 1
 C                     2.10997   2.16275   0.18719 
 C                     1.91979   2.54009  -1.14637 
 O                     1.62483   3.11965   1.0325 
 C                     1.26811   3.83506  -1.10534 
 C                     1.12467   4.126     0.24845 
 C                     0.77934   4.71621  -2.07123 
 C                     0.50918   5.28807   0.73615 
 C                     0.15927   5.86776  -1.62255 
 H                     0.87417   4.50083  -3.12861 
 C                     0.03226   6.15093  -0.25631 
 H                    -0.2364    6.58025  -2.33756 
 H                    -0.45236   7.07431   0.03245 
 C                     2.34168   1.68935  -2.16335 
 H                     2.21033   1.96114  -3.20478 
 C                     2.93089   0.4832   -1.80999 
 H                     3.26828  -0.19804  -2.58255 
 C                     3.08755   0.13283  -0.46713 
 C                     2.69316   0.96007   0.59669 
 H                     3.54882  -0.82166  -0.23807 
 B                     2.95088   0.55291   2.09174 
 N                     0.34809   5.51109   2.10842 
 C                     2.91853   1.63031   3.23863 
 H                     1.87309   1.91906   3.41413 
 H                     3.32648   1.26486   4.18478 
 H                     3.43009   2.55651   2.95947 
 C                     3.28361  -0.9388    2.46982 
 H                     4.36529  -0.99969   2.66074 
 H                     2.80804  -1.21306   3.4176 
 H                     3.03703  -1.6959    1.72251 
 C                     1.55326   5.43      2.9269 
 H                     2.20412   6.30571   2.77806 
 H                     1.26495   5.38868   3.97936 
 H                     2.11544   4.52878   2.69586 
 C                    -0.50614   6.61698   2.49289 
 H                    -0.67957   6.56189   3.56914 
 H                    -0.0647    7.60211   2.26953 
 H                    -1.47228   6.54313   1.99048 
 
                          Input orientation:                          
 ---------------------------------------------------------------------
 Center     Atomic      Atomic             Coordinates (Angstroms)
 Number     Number       Type             X           Y           Z
 ---------------------------------------------------------------------
      1          6           0        2.109972    2.162747    0.187193
      2          6           0        1.919787    2.540093   -1.146369
      3          8           0        1.624832    3.119646    1.032500
      4          6           0        1.268111    3.835059   -1.105336
      5          6           0        1.124667    4.126004    0.248452
      6          6           0        0.779336    4.716211   -2.071227
      7          6           0        0.509182    5.288072    0.736152
      8          6           0        0.159267    5.867758   -1.622549
      9          1           0        0.874173    4.500830   -3.128609
     10          6           0        0.032257    6.150934   -0.256311
     11          1           0       -0.236402    6.580246   -2.337560
     12          1           0       -0.452361    7.074309    0.032445
     13          6           0        2.341681    1.689351   -2.163346
     14          1           0        2.210334    1.961143   -3.204778
     15          6           0        2.930889    0.483200   -1.809987
     16          1           0        3.268278   -0.198043   -2.582546
     17          6           0        3.087554    0.132828   -0.467126
     18          6           0        2.693164    0.960066    0.596692
     19          1           0        3.548817   -0.821658   -0.238066
     20          5           0        2.950884    0.552905    2.091744
     21          7           0        0.348092    5.511094    2.108420
     22          6           0        2.918526    1.630305    3.238627
     23          1           0        1.873090    1.919061    3.414125
     24          1           0        3.326479    1.264861    4.184782
     25          1           0        3.430087    2.556512    2.959472
     26          6           0        3.283614   -0.938797    2.469823
     27          1           0        4.365286   -0.999685    2.660740
     28          1           0        2.808044   -1.213063    3.417604
     29          1           0        3.037031   -1.695899    1.722511
     30          6           0        1.553262    5.430000    2.926902
     31          1           0        2.204123    6.305707    2.778056
     32          1           0        1.264949    5.388675    3.979356
     33          1           0        2.115435    4.528777    2.695858
     34          6           0       -0.506138    6.616980    2.492886
     35          1           0       -0.679566    6.561888    3.569136
     36          1           0       -0.064700    7.602114    2.269531
     37          1           0       -1.472276    6.543133    1.990479
 ---------------------------------------------------------------------
                    Distance matrix (angstroms):
                    1          2          3          4          5
     1  C    0.000000
     2  C    1.398910   0.000000
     3  O    1.365855   2.273840   0.000000
     4  C    2.275080   1.450277   2.282413   0.000000
     5  C    2.197489   2.256736   1.370275   1.392109   0.000000
     6  C    3.659403   2.625163   3.591240   1.395806   2.418369
     7  C    3.554088   3.617331   2.456536   2.465420   1.402525
     8  C    4.561526   3.794672   4.092589   2.372532   2.732462
     9  H    4.241270   2.977763   4.448144   2.166119   3.407020
    10  C    4.518764   4.170509   3.658693   2.758887   2.355523
    11  H    5.603048   4.731905   5.176606   3.364222   3.816185
    12  H    5.541926   5.251267   4.577576   3.840223   3.350549
    13  C    2.408906   1.391402   3.573940   2.622213   3.638017
    14  H    3.399439   2.157927   4.431644   2.967659   4.217830
    15  C    2.735601   2.386111   4.091010   3.807404   4.557371
    16  H    3.819222   3.373192   5.174605   4.738009   5.595266
    17  C    2.346140   2.760430   3.648221   4.174230   4.506710
    18  C    1.397943   2.476461   2.448479   3.632253   3.550298
    19  H    3.340328   3.844493   4.566173   5.257261   5.531054
    20  B    2.631737   3.936680   3.077104   4.881145   4.415861
    21  N    4.243438   4.678752   2.916623   3.739486   2.445613
    22  C    3.201328   4.588397   2.959523   5.143425   4.288075
    23  H    3.244778   4.602822   2.678652   4.945966   3.930931
    24  H    4.273968   5.659167   4.033945   6.231223   5.341237
    25  H    3.095688   4.374838   2.699868   4.778231   3.889460
    26  C    4.025843   5.199956   4.613937   6.295531   5.936982
    27  H    4.604981   5.744961   5.208660   6.866627   6.526364
    28  H    4.724294   5.975369   5.085379   6.950677   6.432956
    29  H    4.255090   5.236634   5.065560   6.458893   6.302741
    30  C    4.300102   5.007738   2.988581   4.345583   3.009683
    31  H    4.887285   5.446265   3.678794   4.696909   3.509306
    32  H    5.049869   5.900533   3.736572   5.316750   3.941277
    33  H    3.448409   4.330803   2.234525   3.955790   2.670888
    34  C    5.656893   5.979155   4.348000   4.882033   3.728535
    35  H    6.210596   6.720674   4.857345   5.751498   4.496191
    36  H    6.217077   6.421107   4.947452   5.230374   4.193172
    37  H    5.939034   6.113120   4.714877   4.942414   3.952377
                    6          7          8          9         10
     6  C    0.000000
     7  C    2.877740   0.000000
     8  C    1.382700   2.453966   0.000000
     9  H    1.083254   3.960978   2.155876   0.000000
    10  C    2.431147   1.398918   1.401045   3.417859   0.000000
    11  H    2.139459   3.416623   1.084174   2.486585   2.141981
    12  H    3.391628   2.147187   2.137489   4.286578   1.082061
    13  C    3.407534   4.971512   4.744942   3.315076   5.373634
    14  H    3.305010   5.430774   4.687426   2.870738   5.567030
    15  C    4.755608   5.952670   6.058918   4.702148   6.552800
    16  H    5.532284   6.980245   6.883421   5.301823   7.496180
    17  C    5.376654   5.888329   6.542117   5.573328   6.752546
    18  C    4.988903   4.849831   5.952403   5.451936   5.895180
    19  H    6.457437   6.893278   7.625885   6.621015   7.809198
    20  B    6.275274   5.497394   7.059516   6.866653   6.735701
    21  N    4.276361   1.399574   3.752732   5.359465   2.470040
    22  C    6.503345   5.044460   7.014310   7.277430   6.401658
    23  H    6.253753   4.514645   6.625518   7.104276   5.896568
    24  H    7.585341   6.001370   8.058721   8.364866   7.378951
    25  H    6.082657   4.575616   6.531273   6.883153   5.899693
    26  C    7.672787   7.033988   8.534532   8.169295   8.262410
    27  H    8.241481   7.622956   9.121345   8.715509   8.855263
    28  H    8.330619   7.398629   9.086099   8.901760   8.685108
    29  H    7.784908   7.492581   8.756704   8.161542   8.632334
    30  C    5.107813   2.430974   4.778322   6.163906   3.600840
    31  H    5.298307   2.842143   4.872223   6.317835   3.734748
    32  H    6.107175   3.331618   5.730043   7.173851   4.476767
    33  H    4.954331   2.645189   4.926267   5.955328   3.960597
    34  C    5.108473   2.425487   4.235670   6.163161   2.839921
    35  H    6.111351   3.325887   5.304625   7.177872   3.912751
    36  H    5.280437   2.834675   4.266900   6.295980   2.914653
    37  H    4.990477   2.659829   4.021447   5.990149   2.732308
                   11         12         13         14         15
    11  H    0.000000
    12  H    2.430568   0.000000
    13  C    5.531520   6.451817   0.000000
    14  H    5.298556   6.611658   1.084299   0.000000
    15  C    6.890866   7.634373   1.388103   2.156144   0.000000
    16  H    7.634658   8.577204   2.143961   2.483647   1.083868
    17  C    7.491088   7.807991   2.419970   3.406903   1.396632
    18  C    6.984169   6.899034   2.876318   3.960613   2.464958
    19  H    8.574610   8.856009   3.386598   4.282160   2.134344
    20  B    8.130582   7.638815   4.446170   5.530343   3.902405
    21  N    4.609930   2.719198   6.068616   6.655837   6.877825
    22  C    8.096255   7.160982   5.433006   6.490644   5.177307
    23  H    7.697953   6.589390   5.601832   6.627623   5.520143
    24  H    9.137198   8.079061   6.438070   7.505743   6.058444
    25  H    7.595533   6.637121   5.308471   6.311913   5.224515
    26  C    9.593615   9.171052   5.409312   6.462405   4.523634
    27  H   10.179091   9.762532   5.881981   6.914812   4.923804
    28  H   10.155109   9.527333   6.307813   7.368092   5.497282
    29  H    9.782337   9.588990   5.200319   6.191572   4.151901
    30  C    5.678074   3.886407   6.365900   7.075466   6.986187
    31  H    5.674598   3.896926   6.763662   7.393888   7.448484
    32  H    6.601312   4.622621   7.251009   8.015829   7.768882
    33  H    5.922412   4.490777   5.632530   6.435779   6.110180
    34  C    4.838111   2.503160   7.353373   7.843431   8.243247
    35  H    5.923326   3.580835   8.107460   8.683564   8.883738
    36  H    4.722180   2.330968   7.771862   8.183177   8.734698
    37  H    4.501187   2.270743   7.440412   7.845186   8.399654
                   16         17         18         19         20
    16  H    0.000000
    17  C    2.148753   0.000000
    18  C    3.432132   1.404128   0.000000
    19  H    2.442168   1.084562   2.145578   0.000000
    20  B    4.744855   2.596721   1.570790   2.770372   0.000000
    21  N    7.945243   6.562304   5.338215   7.473579   5.599861
    22  C    6.111566   4.000452   2.734928   4.300789   1.573905
    23  H    6.510664   4.441808   3.087089   4.863959   2.185569
    24  H    6.923886   4.793624   3.656279   4.895363   2.242490
    25  H    6.190938   4.211074   2.945238   4.652997   2.235403
    26  C    5.106406   3.132489   2.731837   2.723365   1.574429
    27  H    5.416466   3.563528   3.301047   3.016851   2.175965
    28  H    6.102776   4.120762   3.562756   3.750449   2.212906
    29  H    4.564051   2.853297   2.905144   2.206827   2.280542
    30  C    8.060407   6.475609   5.168130   7.285773   5.141682
    31  H    8.495131   7.029658   5.794255   7.855223   5.841524
    32  H    8.847785   7.121588   5.752807   7.846715   5.458033
    33  H    7.178678   5.502168   4.180427   6.268146   4.107370
    34  C    9.297890   7.982513   6.769916   8.901354   6.991775
    35  H    9.956170   8.474398   7.182697   9.321521   7.174310
    36  H    9.772095   8.556648   7.383834   9.502920   7.669205
    37  H    9.424907   8.241595   7.103814   9.187923   7.446975
                   21         22         23         24         25
    21  N    0.000000
    22  C    4.790096   0.000000
    23  H    4.114995   1.098688   0.000000
    24  H    5.586820   1.093245   1.770376   0.000000
    25  H    4.353451   1.094295   1.742783   1.783390   0.000000
    26  C    7.095703   2.706406   3.323949   2.792674   3.532477
    27  H    7.670277   3.056782   3.911228   2.920615   3.689224
    28  H    7.278710   2.851137   3.268693   2.645268   3.847924
    29  H    7.701952   3.657360   4.157433   3.861691   4.446073
    30  C    1.459083   4.049543   3.558984   4.698398   3.432268
    31  H    2.127128   4.752040   4.444866   5.352447   3.948717
    32  H    2.087107   4.172330   3.567568   4.614970   3.707982
    33  H    2.105595   3.056255   2.717583   3.786380   2.384876
    34  C    1.449313   6.095193   5.346013   6.796811   5.674414
    35  H    2.072182   6.113592   5.300559   6.669776   5.770960
    36  H    2.137456   6.745464   6.112464   7.438350   6.176379
    37  H    2.095890   6.706183   5.882201   7.463456   6.392594
                   26         27         28         29         30
    26  C    0.000000
    27  H    1.100078   0.000000
    28  H    1.095298   1.744527   0.000000
    29  H    1.092008   1.768968   1.777331   0.000000
    30  C    6.615483   7.022761   6.778315   7.377707   0.000000
    31  H    7.330972   7.619261   7.570049   8.113791   1.101198
    32  H    6.811065   7.222325   6.802915   7.643613   1.092013
    33  H    5.595543   5.968832   5.828323   6.367365   1.087025
    34  C    8.452959   9.042817   8.552688   9.069260   2.416282
    35  H    8.554271   9.135267   8.522690   9.241978   2.584406
    36  H    9.175973   9.683427   9.342274   9.816976   2.787116
    37  H    8.878487   9.561406   8.973093   9.396132   3.357057
                   31         32         33         34         35
    31  H    0.000000
    32  H    1.779359   0.000000
    33  H    1.781040   1.763553   0.000000
    34  C    2.742941   2.618220   3.357742   0.000000
    35  H    3.001183   2.307780   3.564854   1.091525   0.000000
    36  H    2.662109   3.096898   3.792116   1.102381   1.774571
    37  H    3.767301   3.575025   4.174549   1.091462   1.766607
                   36         37
    36  H    0.000000
    37  H    1.783418   0.000000
 Symmetry turned off by external request.
 Stoichiometry    C16H18BNO
 Framework group  C1[X(C16H18BNO)]
 Deg. of freedom   105
 Full point group                 C1      NOp   1
 Rotational constants (GHZ):           0.5982257           0.2945639           0.2015581
 General basis read from cards:  (5D, 7F)
 ======================================================================================================
                                       Pseudopotential Parameters
 ======================================================================================================
  Center     Atomic      Valence      Angular      Power
  Number     Number     Electrons     Momentum     of R      Exponent        Coefficient   SO-Coeffient
 ======================================================================================================
    1          6
                                   No pseudopotential on this center.
    2          6
                                   No pseudopotential on this center.
    3          8
                                   No pseudopotential on this center.
    4          6
                                   No pseudopotential on this center.
    5          6
                                   No pseudopotential on this center.
    6          6
                                   No pseudopotential on this center.
    7          6
                                   No pseudopotential on this center.
    8          6
                                   No pseudopotential on this center.
    9          1
                                   No pseudopotential on this center.
   10          6
                                   No pseudopotential on this center.
   11          1
                                   No pseudopotential on this center.
   12          1
                                   No pseudopotential on this center.
   13          6
                                   No pseudopotential on this center.
   14          1
                                   No pseudopotential on this center.
   15          6
                                   No pseudopotential on this center.
   16          1
                                   No pseudopotential on this center.
   17          6
                                   No pseudopotential on this center.
   18          6
                                   No pseudopotential on this center.
   19          1
                                   No pseudopotential on this center.
   20          5
                                   No pseudopotential on this center.
   21          7
                                   No pseudopotential on this center.
   22          6
                                   No pseudopotential on this center.
   23          1
                                   No pseudopotential on this center.
   24          1
                                   No pseudopotential on this center.
   25          1
                                   No pseudopotential on this center.
   26          6
                                   No pseudopotential on this center.
   27          1
                                   No pseudopotential on this center.
   28          1
                                   No pseudopotential on this center.
   29          1
                                   No pseudopotential on this center.
   30          6
                                   No pseudopotential on this center.
   31          1
                                   No pseudopotential on this center.
   32          1
                                   No pseudopotential on this center.
   33          1
                                   No pseudopotential on this center.
   34          6
                                   No pseudopotential on this center.
   35          1
                                   No pseudopotential on this center.
   36          1
                                   No pseudopotential on this center.
   37          1
                                   No pseudopotential on this center.
 ======================================================================================================
   544 basis functions,   846 primitive gaussians,   563 cartesian basis functions
    67 alpha electrons       67 beta electrons
       nuclear repulsion energy      1365.2989581957 Hartrees.
 NAtoms=   37 NActive=   37 NUniq=   37 SFac= 1.00D+00 NAtFMM=   60 NAOKFM=F Big=F
 Integral buffers will be    131072 words long.
 Raffenetti 2 integral format.
 Two-electron integral symmetry is turned off.
 Nuclear repulsion after empirical dispersion term =     1365.2716525649 Hartrees.
 ------------------------------------------------------------------------------
 Polarizable Continuum Model (PCM)
 =================================
 Model                : PCM.
 Atomic radii         : UFF (Universal Force Field).
 Polarization charges : Total charges.
 Charge compensation  : None.
 Solution method      : On-the-fly selection.
 Cavity type          : Scaled VdW (van der Waals Surface) (Alpha=1.100).
 Cavity algorithm     : GePol (No added spheres)
                        Default sphere list used, NSphG=   37.
                        Lebedev-Laikov grids with approx.  5.0 points / Ang**2.
                        Smoothing algorithm: York/Karplus (Gamma=1.0000).
                        Polarization charges: spherical gaussians, with
                                              point-specific exponents (IZeta= 3).
                        Self-potential: point-specific (ISelfS= 7).
                        Self-field    : sphere-specific E.n sum rule (ISelfD= 2).
 Solvent              : Toluene, Eps=   2.374100 Eps(inf)=   2.238315
 ------------------------------------------------------------------------------
 One-electron integrals computed using PRISM.
   1 Symmetry operations used in ECPInt.
 ECPInt:  NShTT=   20910 NPrTT=   70147 LenC2=   18918 LenP2D=   44323.
 LDataN:  DoStor=T MaxTD1= 4 Len=   56
 Number of processors reduced to  84 by ecpmxn.
 NBasis=   544 RedAO= T EigKep=  1.81D-06  NBF=   544
 NBsUse=   537 1.00D-06 EigRej=  9.21D-07 NBFU=   537
 ExpMin= 3.15D-02 ExpMax= 8.59D+03 ExpMxC= 1.30D+03 IAcc=3 IRadAn=         5 AccDes= 0.00D+00
 Harris functional with IExCor= 4639 and IRadAn=       5 diagonalized for initial guess.
 HarFok:  IExCor= 4639 AccDes= 0.00D+00 IRadAn=         5 IDoV= 1 UseB2=F ITyADJ=14
 ICtDFT=  3500011 ScaDFX=  1.000000  1.000000  1.000000  1.000000
 FoFCou: FMM=F IPFlag=           0 FMFlag=      100000 FMFlg1=           0
         NFxFlg=           0 DoJE=T BraDBF=F KetDBF=T FulRan=T
         wScrn=  0.000000 ICntrl=       500 IOpCl=  0 I1Cent=   200000004 NGrid=           0
         NMat0=    1 NMatS0=      1 NMatT0=    0 NMatD0=    1 NMtDS0=    0 NMtDT0=    0
 Symmetry not used in FoFCou.
 Requested convergence on RMS density matrix=1.00D-08 within 300 cycles.
 Requested convergence on MAX density matrix=1.00D-06.
 Requested convergence on             energy=1.00D-06.
 No special actions if energy rises.
 Inv3:  Mode=1 IEnd=    20892963.
 Iteration    1 A*A^-1 deviation from unit magnitude is 4.66D-15 for   2620.
 Iteration    1 A*A^-1 deviation from orthogonality  is 4.62D-15 for   2619   2131.
 Iteration    1 A^-1*A deviation from unit magnitude is 4.66D-15 for   2620.
 Iteration    1 A^-1*A deviation from orthogonality  is 1.79D-15 for   2206    417.
 Error on total polarization charges =  0.01169
 SCF Done:  E(RwB97XD) =  -775.331189489     A.U. after   16 cycles
            NFock= 16  Conv=0.41D-08     -V/T= 2.0043

 **********************************************************************

            Population analysis using the SCF Density.

 **********************************************************************

 Alpha  occ. eigenvalues --  -19.31364 -14.44876 -10.35342 -10.34709 -10.33514
 Alpha  occ. eigenvalues --  -10.30754 -10.30316 -10.30298 -10.30092 -10.30047
 Alpha  occ. eigenvalues --  -10.29743 -10.29032 -10.28977 -10.28901 -10.28819
 Alpha  occ. eigenvalues --  -10.27894 -10.24921 -10.24552  -6.84596  -1.22232
 Alpha  occ. eigenvalues --   -1.05248  -0.97198  -0.95891  -0.89060  -0.86837
 Alpha  occ. eigenvalues --   -0.84356  -0.83531  -0.81274  -0.80492  -0.77237
 Alpha  occ. eigenvalues --   -0.76309  -0.73367  -0.71892  -0.69358  -0.66451
 Alpha  occ. eigenvalues --   -0.62741  -0.61492  -0.59841  -0.57569  -0.56771
 Alpha  occ. eigenvalues --   -0.55593  -0.55100  -0.54779  -0.54146  -0.52539
 Alpha  occ. eigenvalues --   -0.51437  -0.51108  -0.49164  -0.48992  -0.48517
 Alpha  occ. eigenvalues --   -0.47664  -0.47113  -0.46310  -0.46224  -0.45561
 Alpha  occ. eigenvalues --   -0.45390  -0.45186  -0.44721  -0.44649  -0.43056
 Alpha  occ. eigenvalues --   -0.39093  -0.38812  -0.38241  -0.35632  -0.32236
 Alpha  occ. eigenvalues --   -0.30139  -0.27741
 Alpha virt. eigenvalues --    0.00337   0.03810   0.04191   0.04488   0.04725
 Alpha virt. eigenvalues --    0.05770   0.05801   0.06141   0.06679   0.07221
 Alpha virt. eigenvalues --    0.07350   0.07484   0.07530   0.08118   0.08898
 Alpha virt. eigenvalues --    0.09357   0.09566   0.09715   0.10187   0.10504
 Alpha virt. eigenvalues --    0.10979   0.11710   0.11862   0.12322   0.12514
 Alpha virt. eigenvalues --    0.13069   0.14060   0.14242   0.14661   0.14967
 Alpha virt. eigenvalues --    0.15327   0.15772   0.16091   0.16616   0.16833
 Alpha virt. eigenvalues --    0.16945   0.17141   0.17537   0.17756   0.18150
 Alpha virt. eigenvalues --    0.18210   0.18749   0.18938   0.19173   0.19331
 Alpha virt. eigenvalues --    0.19749   0.20118   0.20264   0.20650   0.20688
 Alpha virt. eigenvalues --    0.21077   0.21159   0.21361   0.21600   0.21822
 Alpha virt. eigenvalues --    0.22324   0.22478   0.23080   0.23119   0.23349
 Alpha virt. eigenvalues --    0.23468   0.23721   0.23763   0.24097   0.24853
 Alpha virt. eigenvalues --    0.25445   0.25696   0.26154   0.26354   0.26402
 Alpha virt. eigenvalues --    0.26555   0.27122   0.27715   0.28014   0.28197
 Alpha virt. eigenvalues --    0.28576   0.28748   0.29318   0.29466   0.29638
 Alpha virt. eigenvalues --    0.30181   0.30423   0.30647   0.31564   0.31902
 Alpha virt. eigenvalues --    0.32554   0.32729   0.33314   0.33472   0.33958
 Alpha virt. eigenvalues --    0.34231   0.34344   0.35034   0.35233   0.35709
 Alpha virt. eigenvalues --    0.36125   0.36419   0.36616   0.36997   0.37390
 Alpha virt. eigenvalues --    0.38044   0.38256   0.38538   0.39149   0.39570
 Alpha virt. eigenvalues --    0.39646   0.39722   0.39840   0.40475   0.41265
 Alpha virt. eigenvalues --    0.41509   0.42133   0.42496   0.42742   0.43156
 Alpha virt. eigenvalues --    0.44188   0.44716   0.44851   0.45579   0.45888
 Alpha virt. eigenvalues --    0.46936   0.47194   0.47680   0.49146   0.49603
 Alpha virt. eigenvalues --    0.51070   0.52225   0.52786   0.54775   0.56460
 Alpha virt. eigenvalues --    0.57018   0.58186   0.58296   0.59370   0.59870
 Alpha virt. eigenvalues --    0.60502   0.61200   0.61683   0.62390   0.62785
 Alpha virt. eigenvalues --    0.63668   0.63862   0.64689   0.65403   0.65628
 Alpha virt. eigenvalues --    0.66388   0.66859   0.67405   0.67878   0.68380
 Alpha virt. eigenvalues --    0.69015   0.69088   0.69430   0.70290   0.70662
 Alpha virt. eigenvalues --    0.71263   0.71660   0.72288   0.73583   0.74077
 Alpha virt. eigenvalues --    0.74484   0.74770   0.75407   0.75676   0.76301
 Alpha virt. eigenvalues --    0.76825   0.77303   0.78049   0.78583   0.79262
 Alpha virt. eigenvalues --    0.79797   0.80574   0.81085   0.81447   0.81522
 Alpha virt. eigenvalues --    0.82363   0.83044   0.83793   0.84648   0.85209
 Alpha virt. eigenvalues --    0.85394   0.85902   0.86778   0.87883   0.88231
 Alpha virt. eigenvalues --    0.88822   0.89287   0.90229   0.90787   0.91768
 Alpha virt. eigenvalues --    0.92842   0.94279   0.95358   0.95706   0.95817
 Alpha virt. eigenvalues --    0.96801   0.97289   0.98166   0.98681   0.98889
 Alpha virt. eigenvalues --    1.00479   1.00793   1.02871   1.03153   1.03760
 Alpha virt. eigenvalues --    1.04236   1.05223   1.06834   1.07067   1.08554
 Alpha virt. eigenvalues --    1.09191   1.09726   1.10676   1.11774   1.12637
 Alpha virt. eigenvalues --    1.13341   1.14474   1.14820   1.15541   1.16511
 Alpha virt. eigenvalues --    1.17657   1.18182   1.19777   1.20514   1.21523
 Alpha virt. eigenvalues --    1.22442   1.23111   1.23799   1.24549   1.26476
 Alpha virt. eigenvalues --    1.27060   1.29567   1.32337   1.34995   1.35720
 Alpha virt. eigenvalues --    1.36826   1.37699   1.39080   1.40238   1.41740
 Alpha virt. eigenvalues --    1.42432   1.44113   1.45362   1.45812   1.49123
 Alpha virt. eigenvalues --    1.49266   1.51451   1.53197   1.53751   1.55472
 Alpha virt. eigenvalues --    1.57240   1.58493   1.58883   1.59775   1.60399
 Alpha virt. eigenvalues --    1.61848   1.62298   1.62926   1.63621   1.63865
 Alpha virt. eigenvalues --    1.65327   1.66253   1.67390   1.67734   1.68462
 Alpha virt. eigenvalues --    1.69395   1.70157   1.70452   1.71132   1.72232
 Alpha virt. eigenvalues --    1.73210   1.73673   1.75268   1.76480   1.76832
 Alpha virt. eigenvalues --    1.77147   1.77856   1.79582   1.80241   1.80835
 Alpha virt. eigenvalues --    1.82312   1.82880   1.83047   1.84105   1.84720
 Alpha virt. eigenvalues --    1.85293   1.85760   1.88033   1.88923   1.90129
 Alpha virt. eigenvalues --    1.90483   1.92420   1.92729   1.94320   1.94424
 Alpha virt. eigenvalues --    1.95552   1.96957   1.97192   1.98643   1.99312
 Alpha virt. eigenvalues --    2.00158   2.01235   2.01569   2.02597   2.03359
 Alpha virt. eigenvalues --    2.05366   2.05769   2.06549   2.07092   2.09084
 Alpha virt. eigenvalues --    2.09302   2.10682   2.11825   2.13412   2.13928
 Alpha virt. eigenvalues --    2.15537   2.17029   2.17663   2.17793   2.19902
 Alpha virt. eigenvalues --    2.22666   2.22848   2.23927   2.27177   2.27612
 Alpha virt. eigenvalues --    2.28810   2.30383   2.31383   2.32407   2.33653
 Alpha virt. eigenvalues --    2.35124   2.35638   2.37885   2.39738   2.40070
 Alpha virt. eigenvalues --    2.41782   2.44171   2.46658   2.48615   2.50745
 Alpha virt. eigenvalues --    2.52157   2.53302   2.55444   2.55657   2.56699
 Alpha virt. eigenvalues --    2.57681   2.58701   2.59781   2.60219   2.61199
 Alpha virt. eigenvalues --    2.62335   2.65098   2.65221   2.66039   2.67047
 Alpha virt. eigenvalues --    2.67456   2.68314   2.69914   2.71412   2.71897
 Alpha virt. eigenvalues --    2.72310   2.74319   2.74849   2.75640   2.76542
 Alpha virt. eigenvalues --    2.77123   2.78028   2.79845   2.80751   2.81415
 Alpha virt. eigenvalues --    2.82487   2.83084   2.84018   2.85605   2.86031
 Alpha virt. eigenvalues --    2.86590   2.87303   2.88238   2.88821   2.89889
 Alpha virt. eigenvalues --    2.90031   2.91056   2.92351   2.92758   2.93056
 Alpha virt. eigenvalues --    2.94267   2.96405   2.97597   2.98891   3.00288
 Alpha virt. eigenvalues --    3.03091   3.03718   3.06114   3.07718   3.12004
 Alpha virt. eigenvalues --    3.13649   3.14874   3.16878   3.18814   3.20805
 Alpha virt. eigenvalues --    3.20979   3.22071   3.25899   3.27541   3.28709
 Alpha virt. eigenvalues --    3.30743   3.32720   3.35204   3.38426   3.42802
 Alpha virt. eigenvalues --    3.49319   3.51086   3.52561   3.53187   3.60386
 Alpha virt. eigenvalues --    3.63772   3.64785   3.66644   3.68901   3.72408
 Alpha virt. eigenvalues --    3.73419   3.77646   3.80082   3.80755   3.86084
 Alpha virt. eigenvalues --    3.87748   3.88659   3.90450   3.92126   3.92777
 Alpha virt. eigenvalues --    3.93929   3.94892   3.97224   4.07245   4.09893
 Alpha virt. eigenvalues --    4.13683   4.15537   4.18539   4.22856   4.28313
 Alpha virt. eigenvalues --    4.36397   4.39117   4.43254   4.65667   4.92300
 Alpha virt. eigenvalues --    4.95599   4.99908   5.14846   5.15164   5.65612
 Alpha virt. eigenvalues --    6.07239  14.80979  23.69126  23.85120  24.07770
 Alpha virt. eigenvalues --   24.07981  24.08680  24.10182  24.10904  24.11601
 Alpha virt. eigenvalues --   24.14312  24.18644  24.19626  24.21046  24.21493
 Alpha virt. eigenvalues --   24.24736  24.31262  24.33968  35.75014  50.14145
          Condensed to atoms (all electrons):
               1          2          3          4          5          6
     1  C    8.752078   0.610325   0.139330  -1.091364  -2.687041  -0.302028
     2  C    0.610325   9.363259  -0.136192   0.870332  -2.747720  -0.831919
     3  O    0.139330  -0.136192   8.354006  -0.057244   0.066505  -0.008091
     4  C   -1.091364   0.870332  -0.057244   8.082006  -0.064564  -0.568337
     5  C   -2.687041  -2.747720   0.066505  -0.064564  10.685121   1.525722
     6  C   -0.302028  -0.831919  -0.008091  -0.568337   1.525722   7.380964
     7  C    0.474641  -0.515196  -0.267278  -1.205634   0.891586   0.516638
     8  C    0.041994   0.068142   0.049670  -0.874687  -0.131687   1.009465
     9  H   -0.001641  -0.026298  -0.002607  -0.062527   0.036345   0.421267
    10  C    0.083095   0.509166   0.077385   0.916376  -1.299044  -1.978471
    11  H    0.003600  -0.001231   0.000834   0.008052   0.025005  -0.011341
    12  H   -0.014963  -0.006757  -0.001372   0.052785   0.016535  -0.059479
    13  C    1.189498  -0.322955   0.005462  -0.492505  -0.889337  -0.422044
    14  H    0.012387  -0.009238   0.000699   0.007560  -0.003541   0.024251
    15  C    0.538501  -1.286779  -0.029026  -0.387081  -0.238170  -0.293328
    16  H    0.023560   0.006172  -0.000326  -0.009190  -0.004787  -0.001714
    17  C   -1.766354   1.057394   0.072492   0.524769   0.677070   0.079416
    18  C    0.363858  -1.139545  -0.231217  -0.482620   0.612998   0.089559
    19  H    0.005202   0.062124   0.001385   0.006849  -0.009488  -0.002937
    20  B    0.101564  -0.074276  -0.019227  -0.059167  -0.100348   0.008466
    21  N   -0.167324  -0.175882   0.033884   0.030011   0.127369   0.057217
    22  C    0.249136  -0.026008  -0.041311  -0.061311  -0.141619  -0.007360
    23  H   -0.130882  -0.023814   0.000689   0.011303   0.103441   0.007987
    24  H   -0.001556  -0.005547   0.002334  -0.002039   0.003015  -0.000026
    25  H    0.114630   0.074440  -0.015575  -0.013715  -0.079877  -0.012492
    26  C    0.041169  -0.041999   0.005256   0.005280  -0.011058  -0.001765
    27  H    0.007031  -0.008692  -0.000039  -0.001929   0.000578   0.000028
    28  H   -0.003333  -0.002067   0.000701  -0.000402  -0.001991  -0.000195
    29  H   -0.002233  -0.018125   0.000794  -0.001107   0.005283   0.000008
    30  C    0.118897   0.068685  -0.015912  -0.062256  -0.185678  -0.020876
    31  H    0.030642   0.014167  -0.000658  -0.009028  -0.009532   0.000024
    32  H    0.006006   0.004148   0.000476  -0.000061  -0.029894  -0.001785
    33  H   -0.272210  -0.155172   0.012911   0.081781   0.284289   0.046571
    34  C   -0.034501  -0.063011  -0.016617  -0.008859   0.155924  -0.036815
    35  H   -0.006450  -0.004882  -0.001685   0.005963   0.009027  -0.004415
    36  H    0.003360   0.002327   0.001885  -0.011171  -0.002107   0.011214
    37  H    0.006046   0.003665   0.000099  -0.009204   0.000334  -0.002899
               7          8          9         10         11         12
     1  C    0.474641   0.041994  -0.001641   0.083095   0.003600  -0.014963
     2  C   -0.515196   0.068142  -0.026298   0.509166  -0.001231  -0.006757
     3  O   -0.267278   0.049670  -0.002607   0.077385   0.000834  -0.001372
     4  C   -1.205634  -0.874687  -0.062527   0.916376   0.008052   0.052785
     5  C    0.891586  -0.131687   0.036345  -1.299044   0.025005   0.016535
     6  C    0.516638   1.009465   0.421267  -1.978471  -0.011341  -0.059479
     7  C    9.113286  -1.735683   0.017675  -0.922630  -0.017253  -0.061391
     8  C   -1.735683   8.171012  -0.014241   0.127411   0.390995  -0.093599
     9  H    0.017675  -0.014241   0.467392  -0.027373  -0.007921   0.000539
    10  C   -0.922630   0.127411  -0.027373   8.856473  -0.080214   0.533277
    11  H   -0.017253   0.390995  -0.007921  -0.080214   0.462567  -0.013352
    12  H   -0.061391  -0.093599   0.000539   0.533277  -0.013352   0.491863
    13  C    0.010914  -0.135718   0.022131  -0.016715   0.001167  -0.004682
    14  H   -0.000774   0.014582  -0.000059  -0.005406   0.001063  -0.000230
    15  C    0.056201  -0.125241   0.010180  -0.028169  -0.000112  -0.001091
    16  H    0.001586   0.000089   0.000961   0.000422  -0.000064   0.000009
    17  C   -0.180851  -0.046960  -0.004543  -0.058076   0.000176   0.000231
    18  C    0.017131  -0.008592   0.002428  -0.173047   0.001167  -0.000410
    19  H   -0.001394   0.000092  -0.000475  -0.000123   0.000034   0.000001
    20  B    0.023012   0.018447  -0.000148  -0.013604   0.000531  -0.000226
    21  N    0.116095  -0.032887   0.000779  -0.399498  -0.001258  -0.022623
    22  C    0.046045   0.001955  -0.000154   0.007237  -0.000005  -0.000133
    23  H   -0.027162  -0.004399   0.000238  -0.014614  -0.000063  -0.000027
    24  H    0.000828   0.000055  -0.000003  -0.000227   0.000002   0.000004
    25  H    0.021979  -0.002225  -0.000055   0.019817  -0.000086  -0.000119
    26  C    0.001679   0.000848  -0.000060  -0.001110   0.000023  -0.000025
    27  H    0.000137   0.000070   0.000007  -0.000066   0.000001   0.000004
    28  H    0.000166   0.000064  -0.000007  -0.000109   0.000002  -0.000005
    29  H   -0.000096  -0.000023   0.000019  -0.000156   0.000001   0.000001
    30  C   -0.066983   0.025509  -0.000058   0.062535   0.000203  -0.006345
    31  H   -0.001692  -0.006818   0.000046  -0.004374  -0.000688   0.001423
    32  H    0.002323   0.009741   0.000000   0.029471   0.000133  -0.001470
    33  H   -0.010065  -0.020511   0.000289  -0.122396   0.000062   0.003735
    34  C    0.139629  -0.300715  -0.000582  -0.252825   0.000580   0.011576
    35  H    0.018242  -0.017799  -0.000042   0.016186  -0.000071   0.005623
    36  H   -0.036735   0.037266   0.000128   0.007448   0.000531  -0.009698
    37  H   -0.010393  -0.001149  -0.000165   0.003812   0.000806  -0.007719
              13         14         15         16         17         18
     1  C    1.189498   0.012387   0.538501   0.023560  -1.766354   0.363858
     2  C   -0.322955  -0.009238  -1.286779   0.006172   1.057394  -1.139545
     3  O    0.005462   0.000699  -0.029026  -0.000326   0.072492  -0.231217
     4  C   -0.492505   0.007560  -0.387081  -0.009190   0.524769  -0.482620
     5  C   -0.889337  -0.003541  -0.238170  -0.004787   0.677070   0.612998
     6  C   -0.422044   0.024251  -0.293328  -0.001714   0.079416   0.089559
     7  C    0.010914  -0.000774   0.056201   0.001586  -0.180851   0.017131
     8  C   -0.135718   0.014582  -0.125241   0.000089  -0.046960  -0.008592
     9  H    0.022131  -0.000059   0.010180   0.000961  -0.004543   0.002428
    10  C   -0.016715  -0.005406  -0.028169   0.000422  -0.058076  -0.173047
    11  H    0.001167   0.001063  -0.000112  -0.000064   0.000176   0.001167
    12  H   -0.004682  -0.000230  -0.001091   0.000009   0.000231  -0.000410
    13  C    7.463456   0.380483   1.278909   0.004759  -2.276463   0.578091
    14  H    0.380483   0.456373  -0.062008  -0.008323  -0.009702  -0.004040
    15  C    1.278909  -0.062008   7.605473   0.388666  -0.275901  -0.501123
    16  H    0.004759  -0.008323   0.388666   0.454274  -0.089645   0.008400
    17  C   -2.276463  -0.009702  -0.275901  -0.089645   9.343953  -1.306896
    18  C    0.578091  -0.004040  -0.501123   0.008400  -1.306896   8.125311
    19  H   -0.054992   0.002273  -0.070911  -0.013481   0.554993  -0.166527
    20  B    0.073832   0.000807   0.064005   0.000733  -0.089097   0.300871
    21  N   -0.034436   0.000333  -0.013843  -0.000225   0.024251   0.028507
    22  C    0.070840   0.000721   0.025638  -0.000013  -0.250156  -0.096473
    23  H   -0.015660  -0.000326   0.004541  -0.000011   0.066282   0.040371
    24  H    0.002024   0.000004   0.000799  -0.000023  -0.008462   0.010927
    25  H    0.004540  -0.000209   0.003901   0.000317  -0.045079   0.010578
    26  C   -0.002886   0.000043  -0.064645   0.000714  -0.018186  -0.122477
    27  H    0.002571  -0.000023  -0.008553   0.000521  -0.052609   0.040288
    28  H   -0.000104   0.000004   0.001447   0.000058   0.014846  -0.022215
    29  H    0.002312   0.000006   0.015722  -0.000090   0.018487  -0.030310
    30  C    0.020870  -0.000097   0.004822   0.000111  -0.031594  -0.022022
    31  H    0.002922  -0.000010   0.000551   0.000008  -0.002504  -0.004191
    32  H    0.000992   0.000001  -0.000019  -0.000000  -0.001624  -0.003361
    33  H   -0.041156   0.000245  -0.009024  -0.000281   0.074939   0.047703
    34  C   -0.011364  -0.000029  -0.002494  -0.000030   0.003066   0.008997
    35  H   -0.000836  -0.000009  -0.000152  -0.000001   0.000351   0.001115
    36  H    0.000273  -0.000005   0.000109   0.000001   0.000009   0.000083
    37  H    0.000789   0.000024   0.000152   0.000002  -0.000371  -0.000887
              19         20         21         22         23         24
     1  C    0.005202   0.101564  -0.167324   0.249136  -0.130882  -0.001556
     2  C    0.062124  -0.074276  -0.175882  -0.026008  -0.023814  -0.005547
     3  O    0.001385  -0.019227   0.033884  -0.041311   0.000689   0.002334
     4  C    0.006849  -0.059167   0.030011  -0.061311   0.011303  -0.002039
     5  C   -0.009488  -0.100348   0.127369  -0.141619   0.103441   0.003015
     6  C   -0.002937   0.008466   0.057217  -0.007360   0.007987  -0.000026
     7  C   -0.001394   0.023012   0.116095   0.046045  -0.027162   0.000828
     8  C    0.000092   0.018447  -0.032887   0.001955  -0.004399   0.000055
     9  H   -0.000475  -0.000148   0.000779  -0.000154   0.000238  -0.000003
    10  C   -0.000123  -0.013604  -0.399498   0.007237  -0.014614  -0.000227
    11  H    0.000034   0.000531  -0.001258  -0.000005  -0.000063   0.000002
    12  H    0.000001  -0.000226  -0.022623  -0.000133  -0.000027   0.000004
    13  C   -0.054992   0.073832  -0.034436   0.070840  -0.015660   0.002024
    14  H    0.002273   0.000807   0.000333   0.000721  -0.000326   0.000004
    15  C   -0.070911   0.064005  -0.013843   0.025638   0.004541   0.000799
    16  H   -0.013481   0.000733  -0.000225  -0.000013  -0.000011  -0.000023
    17  C    0.554993  -0.089097   0.024251  -0.250156   0.066282  -0.008462
    18  C   -0.166527   0.300871   0.028507  -0.096473   0.040371   0.010927
    19  H    0.521699  -0.019004   0.000266  -0.000849  -0.001520  -0.000666
    20  B   -0.019004   4.242084   0.010382   0.467068  -0.112554  -0.079466
    21  N    0.000266   0.010382   7.070777  -0.008909   0.011987  -0.000303
    22  C   -0.000849   0.467068  -0.008909   5.348075   0.364154   0.400414
    23  H   -0.001520  -0.112554   0.011987   0.364154   0.579150  -0.012106
    24  H   -0.000666  -0.079466  -0.000303   0.400414  -0.012106   0.527433
    25  H   -0.001827  -0.153264  -0.014678   0.369581  -0.026016  -0.017795
    26  C   -0.004170   0.377873   0.001385  -0.065630   0.000963   0.007893
    27  H   -0.007361  -0.111971   0.000163  -0.002959   0.004818   0.003804
    28  H   -0.000682  -0.088921   0.000217   0.004509  -0.000337   0.006721
    29  H    0.006713  -0.074300   0.000079   0.003476  -0.003480   0.002821
    30  C   -0.000524  -0.012497   0.237880  -0.005860  -0.011271   0.003414
    31  H    0.000011  -0.005354  -0.078000  -0.003012   0.002817   0.000146
    32  H   -0.000024   0.007960  -0.059966   0.003670  -0.008315  -0.001099
    33  H    0.001054   0.019412  -0.021103   0.008931   0.012442  -0.005728
    34  C   -0.000034  -0.000825   0.337090  -0.000653   0.002217   0.000060
    35  H   -0.000007  -0.000706  -0.063006   0.000171   0.000105   0.000078
    36  H   -0.000001   0.000051  -0.037909  -0.000200   0.000175  -0.000053
    37  H   -0.000002   0.000183  -0.059173   0.000123  -0.000116   0.000030
              25         26         27         28         29         30
     1  C    0.114630   0.041169   0.007031  -0.003333  -0.002233   0.118897
     2  C    0.074440  -0.041999  -0.008692  -0.002067  -0.018125   0.068685
     3  O   -0.015575   0.005256  -0.000039   0.000701   0.000794  -0.015912
     4  C   -0.013715   0.005280  -0.001929  -0.000402  -0.001107  -0.062256
     5  C   -0.079877  -0.011058   0.000578  -0.001991   0.005283  -0.185678
     6  C   -0.012492  -0.001765   0.000028  -0.000195   0.000008  -0.020876
     7  C    0.021979   0.001679   0.000137   0.000166  -0.000096  -0.066983
     8  C   -0.002225   0.000848   0.000070   0.000064  -0.000023   0.025509
     9  H   -0.000055  -0.000060   0.000007  -0.000007   0.000019  -0.000058
    10  C    0.019817  -0.001110  -0.000066  -0.000109  -0.000156   0.062535
    11  H   -0.000086   0.000023   0.000001   0.000002   0.000001   0.000203
    12  H   -0.000119  -0.000025   0.000004  -0.000005   0.000001  -0.006345
    13  C    0.004540  -0.002886   0.002571  -0.000104   0.002312   0.020870
    14  H   -0.000209   0.000043  -0.000023   0.000004   0.000006  -0.000097
    15  C    0.003901  -0.064645  -0.008553   0.001447   0.015722   0.004822
    16  H    0.000317   0.000714   0.000521   0.000058  -0.000090   0.000111
    17  C   -0.045079  -0.018186  -0.052609   0.014846   0.018487  -0.031594
    18  C    0.010578  -0.122477   0.040288  -0.022215  -0.030310  -0.022022
    19  H   -0.001827  -0.004170  -0.007361  -0.000682   0.006713  -0.000524
    20  B   -0.153264   0.377873  -0.111971  -0.088921  -0.074300  -0.012497
    21  N   -0.014678   0.001385   0.000163   0.000217   0.000079   0.237880
    22  C    0.369581  -0.065630  -0.002959   0.004509   0.003476  -0.005860
    23  H   -0.026016   0.000963   0.004818  -0.000337  -0.003480  -0.011271
    24  H   -0.017795   0.007893   0.003804   0.006721   0.002821   0.003414
    25  H    0.664250  -0.008364   0.001778   0.000516  -0.005047   0.043884
    26  C   -0.008364   5.363716   0.431436   0.419140   0.392566   0.003370
    27  H    0.001778   0.431436   0.526579  -0.006445  -0.010763   0.000829
    28  H    0.000516   0.419140  -0.006445   0.530991  -0.024263   0.000486
    29  H   -0.005047   0.392566  -0.010763  -0.024263   0.584501   0.000354
    30  C    0.043884   0.003370   0.000829   0.000486   0.000354   5.555435
    31  H    0.009959   0.000047   0.000058   0.000023  -0.000037   0.454815
    32  H   -0.002551   0.000836   0.000083   0.000108   0.000128   0.403931
    33  H   -0.087569  -0.010812  -0.002933  -0.002147  -0.000805   0.094165
    34  C   -0.002558   0.000192   0.000022   0.000055   0.000026  -0.196218
    35  H   -0.000400  -0.000029  -0.000004  -0.000004  -0.000003  -0.013371
    36  H    0.000122  -0.000002  -0.000001  -0.000000   0.000000  -0.003638
    37  H    0.000172   0.000012   0.000001   0.000007   0.000001   0.015298
              31         32         33         34         35         36
     1  C    0.030642   0.006006  -0.272210  -0.034501  -0.006450   0.003360
     2  C    0.014167   0.004148  -0.155172  -0.063011  -0.004882   0.002327
     3  O   -0.000658   0.000476   0.012911  -0.016617  -0.001685   0.001885
     4  C   -0.009028  -0.000061   0.081781  -0.008859   0.005963  -0.011171
     5  C   -0.009532  -0.029894   0.284289   0.155924   0.009027  -0.002107
     6  C    0.000024  -0.001785   0.046571  -0.036815  -0.004415   0.011214
     7  C   -0.001692   0.002323  -0.010065   0.139629   0.018242  -0.036735
     8  C   -0.006818   0.009741  -0.020511  -0.300715  -0.017799   0.037266
     9  H    0.000046   0.000000   0.000289  -0.000582  -0.000042   0.000128
    10  C   -0.004374   0.029471  -0.122396  -0.252825   0.016186   0.007448
    11  H   -0.000688   0.000133   0.000062   0.000580  -0.000071   0.000531
    12  H    0.001423  -0.001470   0.003735   0.011576   0.005623  -0.009698
    13  C    0.002922   0.000992  -0.041156  -0.011364  -0.000836   0.000273
    14  H   -0.000010   0.000001   0.000245  -0.000029  -0.000009  -0.000005
    15  C    0.000551  -0.000019  -0.009024  -0.002494  -0.000152   0.000109
    16  H    0.000008  -0.000000  -0.000281  -0.000030  -0.000001   0.000001
    17  C   -0.002504  -0.001624   0.074939   0.003066   0.000351   0.000009
    18  C   -0.004191  -0.003361   0.047703   0.008997   0.001115   0.000083
    19  H    0.000011  -0.000024   0.001054  -0.000034  -0.000007  -0.000001
    20  B   -0.005354   0.007960   0.019412  -0.000825  -0.000706   0.000051
    21  N   -0.078000  -0.059966  -0.021103   0.337090  -0.063006  -0.037909
    22  C   -0.003012   0.003670   0.008931  -0.000653   0.000171  -0.000200
    23  H    0.002817  -0.008315   0.012442   0.002217   0.000105   0.000175
    24  H    0.000146  -0.001099  -0.005728   0.000060   0.000078  -0.000053
    25  H    0.009959  -0.002551  -0.087569  -0.002558  -0.000400   0.000122
    26  C    0.000047   0.000836  -0.010812   0.000192  -0.000029  -0.000002
    27  H    0.000058   0.000083  -0.002933   0.000022  -0.000004  -0.000001
    28  H    0.000023   0.000108  -0.002147   0.000055  -0.000004  -0.000000
    29  H   -0.000037   0.000128  -0.000805   0.000026  -0.000003   0.000000
    30  C    0.454815   0.403931   0.094165  -0.196218  -0.013371  -0.003638
    31  H    0.593352  -0.061966  -0.097000  -0.010701  -0.008027   0.018735
    32  H   -0.061966   0.578293  -0.026982  -0.014585   0.001056   0.002878
    33  H   -0.097000  -0.026982   1.033486   0.023757   0.017082  -0.009835
    34  C   -0.010701  -0.014585   0.023757   5.416741   0.407130   0.384555
    35  H   -0.008027   0.001056   0.017082   0.407130   0.511064  -0.050000
    36  H    0.018735   0.002878  -0.009835   0.384555  -0.050000   0.579316
    37  H   -0.000187  -0.001678  -0.004402   0.426438  -0.005709  -0.049490
              37
     1  C    0.006046
     2  C    0.003665
     3  O    0.000099
     4  C   -0.009204
     5  C    0.000334
     6  C   -0.002899
     7  C   -0.010393
     8  C   -0.001149
     9  H   -0.000165
    10  C    0.003812
    11  H    0.000806
    12  H   -0.007719
    13  C    0.000789
    14  H    0.000024
    15  C    0.000152
    16  H    0.000002
    17  C   -0.000371
    18  C   -0.000887
    19  H   -0.000002
    20  B    0.000183
    21  N   -0.059173
    22  C    0.000123
    23  H   -0.000116
    24  H    0.000030
    25  H    0.000172
    26  C    0.000012
    27  H    0.000001
    28  H    0.000007
    29  H    0.000001
    30  C    0.015298
    31  H   -0.000187
    32  H   -0.001678
    33  H   -0.004402
    34  C    0.426438
    35  H   -0.005709
    36  H   -0.049490
    37  H    0.533910
 Mulliken charges:
               1
     1  C   -0.434671
     2  C    0.908955
     3  O    0.017582
     4  C    0.932934
     5  C   -0.588665
     6  C   -0.610482
     7  C   -0.408583
     8  C   -0.414473
     9  H    0.168535
    10  C    0.148137
    11  H    0.236121
    12  H    0.188111
    13  C   -0.394983
    14  H    0.202166
    15  C   -0.601948
    16  H    0.236842
    17  C    0.002350
    18  C    0.027573
    19  H    0.194303
    20  B    0.297674
    21  N    0.102349
    22  C   -0.659130
    23  H    0.178991
    24  H    0.162294
    25  H    0.149036
    26  C   -0.701222
    27  H    0.193538
    28  H    0.173165
    29  H    0.137540
    30  C   -0.460292
    31  H    0.174033
    32  H    0.163151
    33  H    0.137274
    34  C   -0.364638
    35  H    0.184413
    36  H    0.160379
    37  H    0.161643
 Sum of Mulliken charges =  -0.00000
 Mulliken charges with hydrogens summed into heavy atoms:
               1
     1  C   -0.434671
     2  C    0.908955
     3  O    0.017582
     4  C    0.932934
     5  C   -0.588665
     6  C   -0.441948
     7  C   -0.408583
     8  C   -0.178352
    10  C    0.336248
    13  C   -0.192817
    15  C   -0.365106
    17  C    0.196653
    18  C    0.027573
    20  B    0.297674
    21  N    0.102349
    22  C   -0.168810
    26  C   -0.196979
    30  C    0.014165
    34  C    0.141797
 Electronic spatial extent (au):  <R**2>=          11671.1128
 Charge=             -0.0000 electrons
 Dipole moment (field-independent basis, Debye):
    X=              0.0585    Y=              1.0437    Z=              0.1455  Tot=              1.0554
 Quadrupole moment (field-independent basis, Debye-Ang):
   XX=           -113.9729   YY=            -97.1094   ZZ=           -102.6258
   XY=             -5.9833   XZ=             -0.7123   YZ=              5.8654
 Traceless Quadrupole moment (field-independent basis, Debye-Ang):
   XX=             -9.4035   YY=              7.4599   ZZ=              1.9436
   XY=             -5.9833   XZ=             -0.7123   YZ=              5.8654
 Octapole moment (field-independent basis, Debye-Ang**2):
  XXX=           -567.2249  YYY=           -929.2380  ZZZ=           -182.5081  XYY=           -222.3132
  XXY=           -376.0074  XXZ=            -51.8385  XZZ=           -174.5894  YZZ=           -311.7414
  YYZ=            -12.3559  XYZ=              6.2981
 Hexadecapole moment (field-independent basis, Debye-Ang**3):
 XXXX=          -3032.4282 YYYY=          -9700.1259 ZZZZ=          -2489.3129 XXXY=           -907.7990
 XXXZ=           -317.4011 YYYX=          -1093.0609 YYYZ=           -224.7396 ZZZX=           -394.8904
 ZZZY=           -538.4268 XXYY=          -2351.5770 XXZZ=           -921.4062 YYZZ=          -1976.0729
 XXYZ=           -143.3538 YYXZ=            -88.5638 ZZXY=           -269.0481
 N-N= 1.365271652565D+03 E-N=-4.532491844262D+03  KE= 7.720158164735D+02
 Breneman (CHELPG) radii used.
 Generate Potential Derived Charges using the Breneman model, NDens= 1.
 Grid spacing= 0.300 Box extension= 2.800
 NStep X,Y,Z=   40     51     45   Total possible points=       91800
 Number of Points to Fit=   20820

 **********************************************************************

            Electrostatic Properties Using The SCF Density.

 **********************************************************************

       Atomic Center    1 is at   2.109972  2.162747  0.187193
       Atomic Center    2 is at   1.919787  2.540093 -1.146369
       Atomic Center    3 is at   1.624832  3.119646  1.032500
       Atomic Center    4 is at   1.268111  3.835059 -1.105336
       Atomic Center    5 is at   1.124667  4.126004  0.248452
       Atomic Center    6 is at   0.779336  4.716211 -2.071227
       Atomic Center    7 is at   0.509182  5.288072  0.736152
       Atomic Center    8 is at   0.159267  5.867758 -1.622549
       Atomic Center    9 is at   0.874173  4.500830 -3.128609
       Atomic Center   10 is at   0.032257  6.150934 -0.256311
       Atomic Center   11 is at  -0.236402  6.580246 -2.337560
       Atomic Center   12 is at  -0.452361  7.074309  0.032445
       Atomic Center   13 is at   2.341681  1.689351 -2.163346
       Atomic Center   14 is at   2.210334  1.961143 -3.204778
       Atomic Center   15 is at   2.930889  0.483200 -1.809987
       Atomic Center   16 is at   3.268278 -0.198043 -2.582546
       Atomic Center   17 is at   3.087554  0.132828 -0.467126
       Atomic Center   18 is at   2.693164  0.960066  0.596692
       Atomic Center   19 is at   3.548817 -0.821658 -0.238066
       Atomic Center   20 is at   2.950884  0.552905  2.091744
       Atomic Center   21 is at   0.348092  5.511094  2.108420
       Atomic Center   22 is at   2.918526  1.630305  3.238627
       Atomic Center   23 is at   1.873090  1.919061  3.414125
       Atomic Center   24 is at   3.326479  1.264861  4.184782
       Atomic Center   25 is at   3.430087  2.556512  2.959472
       Atomic Center   26 is at   3.283614 -0.938797  2.469823
       Atomic Center   27 is at   4.365286 -0.999685  2.660740
       Atomic Center   28 is at   2.808044 -1.213063  3.417604
       Atomic Center   29 is at   3.037031 -1.695899  1.722511
       Atomic Center   30 is at   1.553262  5.430000  2.926902
       Atomic Center   31 is at   2.204123  6.305707  2.778056
       Atomic Center   32 is at   1.264949  5.388675  3.979356
       Atomic Center   33 is at   2.115435  4.528777  2.695858
       Atomic Center   34 is at  -0.506138  6.616980  2.492886
       Atomic Center   35 is at  -0.679566  6.561888  3.569136
       Atomic Center   36 is at  -0.064700  7.602114  2.269531
       Atomic Center   37 is at  -1.472276  6.543133  1.990479
   20820 points will be used for fitting atomic charges
 Fitting point charges to electrostatic potential
 Charges from ESP fit, RMS=   0.00429 RRMS=   0.41226:
 ESP charges:
               1
     1  C    0.346161
     2  C   -0.049212
     3  O   -0.270730
     4  C    0.088809
     5  C   -0.008712
     6  C   -0.242035
     7  C    0.351517
     8  C   -0.117208
     9  H    0.143299
    10  C   -0.264123
    11  H    0.114714
    12  H    0.148172
    13  C   -0.111875
    14  H    0.128302
    15  C   -0.175286
    16  H    0.111074
    17  C   -0.038316
    18  C   -0.360085
    19  H    0.099726
    20  B    0.600630
    21  N   -0.403122
    22  C   -0.380374
    23  H    0.069860
    24  H    0.065039
    25  H    0.048843
    26  C   -0.473788
    27  H    0.094982
    28  H    0.090569
    29  H    0.081547
    30  C    0.099723
    31  H   -0.004385
    32  H    0.044063
    33  H    0.046830
    34  C   -0.076943
    35  H    0.090785
    36  H    0.053376
    37  H    0.058173
 Sum of ESP charges =  -0.00000
 ESP charges with hydrogens summed into heavy atoms:
               1
     1  C    0.346161
     2  C   -0.049212
     3  O   -0.270730
     4  C    0.088809
     5  C   -0.008712
     6  C   -0.098735
     7  C    0.351517
     8  C   -0.002494
    10  C   -0.115951
    13  C    0.016427
    15  C   -0.064212
    17  C    0.061409
    18  C   -0.360085
    20  B    0.600630
    21  N   -0.403122
    22  C   -0.196631
    26  C   -0.206689
    30  C    0.186230
    34  C    0.125390
 Charge=  -0.00000 Dipole=     0.0749     1.1023     0.0045 Tot=     1.1049
 -----------------------------------------------------------------

              Electrostatic Properties (Atomic Units)

 -----------------------------------------------------------------
    Center     Electric         -------- Electric Field --------
               Potential          X             Y             Z
 -----------------------------------------------------------------
    1 Atom    -14.714902
    2 Atom    -14.766531
    3 Atom    -22.307445
    4 Atom    -14.767312
    5 Atom    -14.720821
    6 Atom    -14.776164
    7 Atom    -14.729427
    8 Atom    -14.775971
    9 Atom     -1.102346
   10 Atom    -14.776177
   11 Atom     -1.108089
   12 Atom     -1.102222
   13 Atom    -14.762081
   14 Atom     -1.093616
   15 Atom    -14.773943
   16 Atom     -1.104141
   17 Atom    -14.768355
   18 Atom    -14.786870
   19 Atom     -1.106801
   20 Atom    -11.468077
   21 Atom    -18.376505
   22 Atom    -14.812981
   23 Atom     -1.114884
   24 Atom     -1.132257
   25 Atom     -1.124277
   26 Atom    -14.807988
   27 Atom     -1.107412
   28 Atom     -1.119618
   29 Atom     -1.127432
   30 Atom    -14.753004
   31 Atom     -1.120306
   32 Atom     -1.114294
   33 Atom     -1.118354
   34 Atom    -14.746305
   35 Atom     -1.107598
   36 Atom     -1.112793
   37 Atom     -1.109005
 -----------------------------------------------------------------
 Unable to Open any file for archive entry.
 1\1\GINC-IRENE4657\SP\RwB97XD\GenECP\C16H18B1N1O1\PENASFRA\10-Apr-2024
 \0\\# wb97xd/genecp scrf=(solvent=toluene,pcm) nosymm pop=(chelpg) scf
 cyc=300\\me_dibenzofuran_chelpg\\0,1\C,0,2.109972,2.162747,0.187193\C,
 0,1.919787,2.540093,-1.146369\O,0,1.624832,3.119646,1.0325\C,0,1.26811
 1,3.835059,-1.105336\C,0,1.124667,4.126004,0.248452\C,0,0.779336,4.716
 211,-2.071227\C,0,0.509182,5.288072,0.736152\C,0,0.159267,5.867758,-1.
 622549\H,0,0.874173,4.50083,-3.128609\C,0,0.032257,6.150934,-0.256311\
 H,0,-0.236402,6.580246,-2.33756\H,0,-0.452361,7.074309,0.032445\C,0,2.
 341681,1.689351,-2.163346\H,0,2.210334,1.961143,-3.204778\C,0,2.930889
 ,0.4832,-1.809987\H,0,3.268278,-0.198043,-2.582546\C,0,3.087554,0.1328
 28,-0.467126\C,0,2.693164,0.960066,0.596692\H,0,3.548817,-0.821658,-0.
 238066\B,0,2.950884,0.552905,2.091744\N,0,0.348092,5.511094,2.10842\C,
 0,2.918526,1.630305,3.238627\H,0,1.87309,1.919061,3.414125\H,0,3.32647
 9,1.264861,4.184782\H,0,3.430087,2.556512,2.959472\C,0,3.283614,-0.938
 797,2.469823\H,0,4.365286,-0.999685,2.66074\H,0,2.808044,-1.213063,3.4
 17604\H,0,3.037031,-1.695899,1.722511\C,0,1.553262,5.43,2.926902\H,0,2
 .204123,6.305707,2.778056\H,0,1.264949,5.388675,3.979356\H,0,2.115435,
 4.528777,2.695858\C,0,-0.506138,6.61698,2.492886\H,0,-0.679566,6.56188
 8,3.569136\H,0,-0.0647,7.602114,2.269531\H,0,-1.472276,6.543133,1.9904
 79\\Version=AS64L-G16RevC.02\HF=-775.3311895\RMSD=4.125e-09\Dipole=0.0
 230045,0.4106232,0.0572486\Quadrupole=-6.9912813,5.5462652,1.4450161,-
 4.4484119,-0.5295989,4.3607857\PG=C01 [X(C16H18B1N1O1)]\\@
 The archive entry for this job was punched.


 IT WAS AN ACT OF DESPARATION. FOR SIX YEARS I HAD STRUGGLED WITH THE
 BLACKBODY THEORY. I KNEW THE PROBLEM WAS FUNDAMENTAL, AND I KNEW
 THE ANSWER. I HAD TO FIND A THEORETICAL EXPLANATION AT ANY COST,
 EXCEPT FOR THE INVIOLABLITY OF THE TWO LAWS OF THERMODYNAMICS.
   -- MAX PLANCK, 1931
 Job cpu time:       0 days  1 hours 38 minutes 23.8 seconds.
 Elapsed time:       0 days  0 hours  1 minutes  0.5 seconds.
 File lengths (MBytes):  RWF=    276 Int=      0 D2E=      0 Chk=     19 Scr=      1
 Normal termination of Gaussian 16 at Wed Apr 10 15:27:05 2024.
