 Entering Gaussian System, Link 0=/ccc/products/gaussian-16-C.02/system/default/g16/g16
 Input=me_indole_chelpg.gjf
 Output=me_indole_chelpg.log
 Initial command:
 /ccc/products/gaussian-16-C.02/system/default/g16/l1.exe "/ccc/scratch/cont003/gen7343/penasfra/flp/b-n_flp/me_indole/Reactant/Gau-3194234.inp" -scrdir="/ccc/scratch/cont003/gen7343/penasfra/flp/b-n_flp/me_indole/Reactant/"
 Entering Link 1 = /ccc/products/gaussian-16-C.02/system/default/g16/l1.exe PID=   3194283.
  
 Copyright (c) 1988-2021, Gaussian, Inc.  All Rights Reserved.
  
 This is part of the Gaussian(R) 16 program.  It is based on
 the Gaussian(R) 09 system (copyright 2009, Gaussian, Inc.),
 the Gaussian(R) 03 system (copyright 2003, Gaussian, Inc.),
 the Gaussian(R) 98 system (copyright 1998, Gaussian, Inc.),
 the Gaussian(R) 94 system (copyright 1995, Gaussian, Inc.),
 the Gaussian 92(TM) system (copyright 1992, Gaussian, Inc.),
 the Gaussian 90(TM) system (copyright 1990, Gaussian, Inc.),
 the Gaussian 88(TM) system (copyright 1988, Gaussian, Inc.),
 the Gaussian 86(TM) system (copyright 1986, Carnegie Mellon
 University), and the Gaussian 82(TM) system (copyright 1983,
 Carnegie Mellon University). Gaussian is a federally registered
 trademark of Gaussian, Inc.
  
 This software contains proprietary and confidential information,
 including trade secrets, belonging to Gaussian, Inc.
  
 This software is provided under written license and may be
 used, copied, transmitted, or stored only in accord with that
 written license.
  
 The following legend is applicable only to US Government
 contracts under FAR:
  
                    RESTRICTED RIGHTS LEGEND
  
 Use, reproduction and disclosure by the US Government is
 subject to restrictions as set forth in subparagraphs (a)
 and (c) of the Commercial Computer Software - Restricted
 Rights clause in FAR 52.227-19.
  
 Gaussian, Inc.
 340 Quinnipiac St., Bldg. 40, Wallingford CT 06492
  
  
 ---------------------------------------------------------------
 Warning -- This program may not be used in any manner that
 competes with the business of Gaussian, Inc. or will provide
 assistance to any competitor of Gaussian, Inc.  The licensee
 of this program is prohibited from giving any competitor of
 Gaussian, Inc. access to this program.  By using this program,
 the user acknowledges that Gaussian, Inc. is engaged in the
 business of creating and licensing software in the field of
 computational chemistry and represents and warrants to the
 licensee that it is not a competitor of Gaussian, Inc. and that
 it will not use this program in any manner prohibited above.
 ---------------------------------------------------------------
  

 Cite this work as:
 Gaussian 16, Revision C.02,
 M. J. Frisch, G. W. Trucks, H. B. Schlegel, G. E. Scuseria, 
 M. A. Robb, J. R. Cheeseman, G. Scalmani, V. Barone, 
 G. A. Petersson, H. Nakatsuji, X. Li, M. Caricato, A. V. Marenich, 
 J. Bloino, B. G. Janesko, R. Gomperts, B. Mennucci, H. P. Hratchian, 
 J. V. Ortiz, A. F. Izmaylov, J. L. Sonnenberg, D. Williams-Young, 
 F. Ding, F. Lipparini, F. Egidi, J. Goings, B. Peng, A. Petrone, 
 T. Henderson, D. Ranasinghe, V. G. Zakrzewski, J. Gao, N. Rega, 
 G. Zheng, W. Liang, M. Hada, M. Ehara, K. Toyota, R. Fukuda, 
 J. Hasegawa, M. Ishida, T. Nakajima, Y. Honda, O. Kitao, H. Nakai, 
 T. Vreven, K. Throssell, J. A. Montgomery, Jr., J. E. Peralta, 
 F. Ogliaro, M. J. Bearpark, J. J. Heyd, E. N. Brothers, K. N. Kudin, 
 V. N. Staroverov, T. A. Keith, R. Kobayashi, J. Normand, 
 K. Raghavachari, A. P. Rendell, J. C. Burant, S. S. Iyengar, 
 J. Tomasi, M. Cossi, J. M. Millam, M. Klene, C. Adamo, R. Cammi, 
 J. W. Ochterski, R. L. Martin, K. Morokuma, O. Farkas, 
 J. B. Foresman, and D. J. Fox, Gaussian, Inc., Wallingford CT, 2019.
 
 ******************************************
 Gaussian 16:  AS64L-G16RevC.02  7-Dec-2021
                10-Apr-2024 
 ******************************************
 %nprocshared=128
 Will use up to  128 processors via shared memory.
 %mem=30GB
 %chk=me_indole_chelpg.chk
 ----------------------------------------------------------------------
 # wb97xd/genecp scrf=(solvent=toluene,pcm) nosymm pop=(chelpg) scfcyc=
 300
 ----------------------------------------------------------------------
 1/38=1,172=1/1;
 2/12=2,15=1,17=6,18=5,40=1/2;
 3/5=7,11=2,16=1,17=8,25=1,30=1,70=2201,72=13,74=-58/1,2,3;
 4//1;
 5/5=2,7=300,38=5,53=13/2;
 6/7=2,8=2,9=2,10=2,15=8,20=3,28=1/1,2;
 99/5=1,9=1/99;
 ----------------
 me_indole_chelpg
 ----------------
 Symbolic Z-matrix:
 Charge =  0 Multiplicity = 1
 C                    -1.11313  -1.23819  -0.21519 
 C                    -2.49386  -1.26739  -0.13197 
 C                    -1.83569   0.90083  -0.15841 
 C                    -1.94485   2.30092  -0.14894 
 C                    -3.20328   2.86404  -0.05971 
 C                    -4.34749   2.0305    0.01774 
 C                    -4.24647   0.65837   0.00817 
 C                    -2.97374   0.06889  -0.08272 
 H                    -1.06654   2.93563  -0.19645 
 H                    -5.32523   2.49689   0.08804 
 H                    -5.13498   0.03885   0.06841 
 N                    -0.72617   0.10654  -0.23879 
 H                    -3.09316  -2.16434  -0.09026 
 B                    -0.20305  -2.48953  -0.1158 
 C                     0.61716   0.62509  -0.38845 
 H                     1.094     0.79877   0.58063 
 H                     1.2231   -0.07194  -0.96254 
 H                     0.58207   1.56765  -0.93628 
 C                     1.34104  -2.43212   0.21696 
 H                     1.89803  -2.30202  -0.72246 
 H                     1.63935  -1.61101   0.87313 
 H                     1.69491  -3.37229   0.6504 
 C                    -0.83888  -3.91953  -0.314 
 H                    -0.84602  -4.43667   0.65527 
 H                    -1.8527   -3.94422  -0.71756 
 H                    -0.19522  -4.52887  -0.95991 
 C                    -3.38172   4.36     -0.03804 
 H                    -3.87827   4.68104   0.8824 
 H                    -2.42299   4.8781   -0.10336 
 H                    -4.00333   4.69092  -0.87525 
 
                          Input orientation:                          
 ---------------------------------------------------------------------
 Center     Atomic      Atomic             Coordinates (Angstroms)
 Number     Number       Type             X           Y           Z
 ---------------------------------------------------------------------
      1          6           0       -1.113130   -1.238193   -0.215190
      2          6           0       -2.493862   -1.267391   -0.131970
      3          6           0       -1.835693    0.900828   -0.158409
      4          6           0       -1.944848    2.300921   -0.148937
      5          6           0       -3.203280    2.864040   -0.059713
      6          6           0       -4.347493    2.030496    0.017744
      7          6           0       -4.246471    0.658374    0.008167
      8          6           0       -2.973739    0.068889   -0.082715
      9          1           0       -1.066543    2.935628   -0.196445
     10          1           0       -5.325225    2.496891    0.088040
     11          1           0       -5.134980    0.038848    0.068410
     12          7           0       -0.726167    0.106536   -0.238792
     13          1           0       -3.093156   -2.164340   -0.090258
     14          5           0       -0.203052   -2.489530   -0.115804
     15          6           0        0.617162    0.625089   -0.388446
     16          1           0        1.094002    0.798774    0.580633
     17          1           0        1.223097   -0.071935   -0.962539
     18          1           0        0.582067    1.567653   -0.936278
     19          6           0        1.341035   -2.432120    0.216963
     20          1           0        1.898028   -2.302025   -0.722464
     21          1           0        1.639348   -1.611012    0.873128
     22          1           0        1.694912   -3.372285    0.650397
     23          6           0       -0.838882   -3.919534   -0.313996
     24          1           0       -0.846018   -4.436671    0.655265
     25          1           0       -1.852697   -3.944223   -0.717562
     26          1           0       -0.195216   -4.528874   -0.959905
     27          6           0       -3.381719    4.360000   -0.038035
     28          1           0       -3.878268    4.681037    0.882400
     29          1           0       -2.422994    4.878103   -0.103356
     30          1           0       -4.003330    4.690924   -0.875250
 ---------------------------------------------------------------------
                    Distance matrix (angstroms):
                    1          2          3          4          5
     1  C    0.000000
     2  C    1.383546   0.000000
     3  C    2.258480   2.266067   0.000000
     4  C    3.636134   3.610340   1.404374   0.000000
     5  C    4.606649   4.192519   2.394627   1.381563   0.000000
     6  C    4.604312   3.786083   2.759768   2.423554   1.417751
     7  C    3.669425   2.607652   2.428658   2.831980   2.440864
     8  C    2.277692   1.420687   1.411737   2.458652   2.804655
     9  H    4.174123   4.439230   2.175649   1.084680   2.142304
    10  H    5.637778   4.715383   3.845125   3.394335   2.158537
    11  H    4.229248   2.953289   3.417565   3.916779   3.424849
    12  N    1.399498   2.241391   1.366898   2.511689   3.711063
    13  H    2.189488   1.079542   3.313776   4.610923   5.029678
    14  B    1.550472   2.596478   3.763225   5.097389   6.137200
    15  C    2.548676   3.650443   2.479001   3.070777   4.440354
    16  H    3.107089   4.201144   3.023195   3.467467   4.810613
    17  H    2.715998   3.991835   3.308941   4.040825   5.387751
    18  H    3.356551   4.259780   2.625890   2.746432   4.096076
    19  C    2.763176   4.023032   4.619637   5.773438   6.984029
    20  H    3.233595   4.550588   4.951474   6.023599   7.290460
    21  H    2.983214   4.267519   4.410138   5.403175   6.659379
    22  H    3.631624   4.752737   5.601681   6.787640   7.961676
    23  C    2.697140   3.131446   4.924808   6.320163   7.188318
    24  H    3.325553   3.657795   5.489118   6.873814   7.705080
    25  H    2.849901   2.814150   4.877239   6.271654   6.972036
    26  H    3.496534   4.075110   5.728457   7.096829   8.032059
    27  C    6.042983   5.697775   3.790852   2.513305   1.506721
    28  H    6.624800   6.191068   4.421015   3.235231   2.155148
    29  H    6.255983   6.145969   4.020780   2.621558   2.160371
    30  H    6.628979   6.191323   4.424629   3.236818   2.154689
                    6          7          8          9         10
     6  C    0.000000
     7  C    1.375869   0.000000
     8  C    2.396913   1.405560   0.000000
     9  H    3.410245   3.916592   3.445072   0.000000
    10  H    1.085553   2.133128   3.384352   4.290664   0.000000
    11  H    2.142280   1.084846   2.166727   5.001366   2.465472
    12  N    4.108702   3.571842   2.253299   2.849809   5.193453
    13  H    4.379689   3.050826   2.236432   5.488908   5.171170
    14  B    6.133911   5.125808   3.771380   5.494038   7.151406
    15  C    5.175708   4.879891   3.646560   2.865365   6.248411
    16  H    5.607482   5.372903   4.185604   3.136551   6.658282
    17  H    6.034289   5.602838   4.290379   3.856784   7.112180
    18  H    5.042315   5.003353   3.952040   2.266412   6.067026
    19  C    7.232840   6.388660   4.996211   5.897462   8.291610
    20  H    7.637092   6.859494   5.455697   6.041389   8.709873
    21  H    7.059357   6.367192   5.001627   5.397941   8.123823
    22  H    8.130249   7.208239   5.845976   6.937762   9.167649
    23  C    6.915436   5.716003   4.529749   6.859949   7.839606
    24  H    7.381803   6.159651   5.037051   7.424610   8.274015
    25  H    6.516283   5.238391   4.214835   6.944203   7.361752
    26  H    7.824483   6.652621   5.443260   7.553865   8.762223
    27  C    2.522384   3.801574   4.310693   2.722860   2.695234
    28  H    2.827219   4.132998   4.798076   3.480827   2.737734
    29  H    3.439074   4.598219   4.840691   2.371041   3.758956
    30  H    2.827324   4.135336   4.801185   3.488059   2.736625
                   11         12         13         14         15
    11  H    0.000000
    12  N    4.420021   0.000000
    13  H    3.008032   3.283531   0.000000
    14  B    5.545317   2.651101   2.908454   0.000000
    15  C    5.799960   1.447697   4.651483   3.232327   0.000000
    16  H    6.296037   2.112739   5.173242   3.602821   1.093918
    17  H    6.442070   2.086934   4.875354   2.931830   1.087466
    18  H    6.002605   2.081544   5.305731   4.213113   1.090770
    19  C    6.933002   3.305421   4.452880   1.580580   3.199537
    20  H    7.454419   3.594649   5.032947   2.194933   3.212504
    21  H    7.018627   3.127619   4.861160   2.268087   2.763436
    22  H    7.656498   4.330644   4.993325   2.229033   4.268459
    23  C    5.854185   4.028350   2.865749   1.577489   4.772757
    24  H    6.226545   4.631893   3.281604   2.190733   5.371373
    25  H    5.220727   4.231659   2.258369   2.280257   5.204530
    26  H    6.806084   4.721116   3.839969   2.207146   5.248796
    27  C    4.664505   5.018388   6.530927   7.551558   5.483010
    28  H    4.877686   5.667351   6.958567   8.119154   6.186651
    29  H    5.550023   5.066105   7.074270   7.694824   5.235643
    30  H    4.879850   5.671110   6.959833   8.159521   6.173892
                   16         17         18         19         20
    16  H    0.000000
    17  H    1.776564   0.000000
    18  H    1.776027   1.760641   0.000000
    19  C    3.260668   2.641138   4.231333   0.000000
    20  H    3.458247   2.342321   4.092906   1.099859   0.000000
    21  H    2.487976   2.431398   3.807322   1.092594   1.757933
    22  H    4.214700   3.703577   5.306501   1.094077   1.752558
    23  C    5.176759   4.413206   5.702241   2.691906   3.205286
    24  H    5.583828   5.094060   6.373723   2.998922   3.739604
    25  H    5.732745   4.951276   6.029651   3.655095   4.094481
    26  H    5.693784   4.677171   6.145923   2.853325   3.065437
    27  C    5.753013   6.457638   4.931089   8.276613   8.527998
    28  H    6.315576   7.212383   5.735446   8.847651   9.203496
    29  H    5.429367   6.207661   4.547882   8.228601   8.402902
    30  H    6.576566   7.071632   5.548370   8.971785   9.151541
                   21         22         23         24         25
    21  H    0.000000
    22  H    1.776170   0.000000
    23  C    3.588894   2.765800   0.000000
    24  H    3.769464   2.754862   1.098612   0.000000
    25  H    4.490940   3.844991   1.091465   1.772163   0.000000
    26  H    3.903787   2.739225   1.096722   1.743794   1.774201
    27  C    7.854573   9.275470   8.665614   9.181060   8.471115
    28  H    8.368635   9.796436   9.199948   9.611385   9.003218
    29  H    7.717821   9.251713   8.941599   9.477730   8.862050
    30  H    8.637768   9.990641   9.190687   9.778757   8.900329
                   26         27         28         29         30
    26  H    0.000000
    27  C    9.487662   0.000000
    28  H   10.088678   1.093996   0.000000
    29  H    9.705044   1.091719   1.768721   0.000000
    30  H    9.975649   1.094002   1.762121   1.768705   0.000000
 Symmetry turned off by external request.
 Stoichiometry    C12H16BN
 Framework group  C1[X(C12H16BN)]
 Deg. of freedom    84
 Full point group                 C1      NOp   1
 Rotational constants (GHZ):           1.6524000           0.3971935           0.3245493
 General basis read from cards:  (5D, 7F)
 ======================================================================================================
                                       Pseudopotential Parameters
 ======================================================================================================
  Center     Atomic      Valence      Angular      Power
  Number     Number     Electrons     Momentum     of R      Exponent        Coefficient   SO-Coeffient
 ======================================================================================================
    1          6
                                   No pseudopotential on this center.
    2          6
                                   No pseudopotential on this center.
    3          6
                                   No pseudopotential on this center.
    4          6
                                   No pseudopotential on this center.
    5          6
                                   No pseudopotential on this center.
    6          6
                                   No pseudopotential on this center.
    7          6
                                   No pseudopotential on this center.
    8          6
                                   No pseudopotential on this center.
    9          1
                                   No pseudopotential on this center.
   10          1
                                   No pseudopotential on this center.
   11          1
                                   No pseudopotential on this center.
   12          7
                                   No pseudopotential on this center.
   13          1
                                   No pseudopotential on this center.
   14          5
                                   No pseudopotential on this center.
   15          6
                                   No pseudopotential on this center.
   16          1
                                   No pseudopotential on this center.
   17          1
                                   No pseudopotential on this center.
   18          1
                                   No pseudopotential on this center.
   19          6
                                   No pseudopotential on this center.
   20          1
                                   No pseudopotential on this center.
   21          1
                                   No pseudopotential on this center.
   22          1
                                   No pseudopotential on this center.
   23          6
                                   No pseudopotential on this center.
   24          1
                                   No pseudopotential on this center.
   25          1
                                   No pseudopotential on this center.
   26          1
                                   No pseudopotential on this center.
   27          6
                                   No pseudopotential on this center.
   28          1
                                   No pseudopotential on this center.
   29          1
                                   No pseudopotential on this center.
   30          1
                                   No pseudopotential on this center.
 ======================================================================================================
   420 basis functions,   648 primitive gaussians,   434 cartesian basis functions
    50 alpha electrons       50 beta electrons
       nuclear repulsion energy       827.2969073138 Hartrees.
 NAtoms=   30 NActive=   30 NUniq=   30 SFac= 1.00D+00 NAtFMM=   60 NAOKFM=F Big=F
 Integral buffers will be    131072 words long.
 Raffenetti 2 integral format.
 Two-electron integral symmetry is turned off.
 Nuclear repulsion after empirical dispersion term =      827.2763954107 Hartrees.
 ------------------------------------------------------------------------------
 Polarizable Continuum Model (PCM)
 =================================
 Model                : PCM.
 Atomic radii         : UFF (Universal Force Field).
 Polarization charges : Total charges.
 Charge compensation  : None.
 Solution method      : On-the-fly selection.
 Cavity type          : Scaled VdW (van der Waals Surface) (Alpha=1.100).
 Cavity algorithm     : GePol (No added spheres)
                        Default sphere list used, NSphG=   30.
                        Lebedev-Laikov grids with approx.  5.0 points / Ang**2.
                        Smoothing algorithm: York/Karplus (Gamma=1.0000).
                        Polarization charges: spherical gaussians, with
                                              point-specific exponents (IZeta= 3).
                        Self-potential: point-specific (ISelfS= 7).
                        Self-field    : sphere-specific E.n sum rule (ISelfD= 2).
 Solvent              : Toluene, Eps=   2.374100 Eps(inf)=   2.238315
 ------------------------------------------------------------------------------
 One-electron integrals computed using PRISM.
   1 Symmetry operations used in ECPInt.
 ECPInt:  NShTT=   13530 NPrTT=   43665 LenC2=   12556 LenP2D=   29692.
 LDataN:  DoStor=T MaxTD1= 4 Len=   56
 Number of processors reduced to 105 by ecpmxn.
 NBasis=   420 RedAO= T EigKep=  1.01D-06  NBF=   420
 NBsUse=   417 1.00D-06 EigRej=  6.37D-07 NBFU=   417
 ExpMin= 3.15D-02 ExpMax= 6.29D+03 ExpMxC= 9.49D+02 IAcc=3 IRadAn=         5 AccDes= 0.00D+00
 Harris functional with IExCor= 4639 and IRadAn=       5 diagonalized for initial guess.
 HarFok:  IExCor= 4639 AccDes= 0.00D+00 IRadAn=         5 IDoV= 1 UseB2=F ITyADJ=14
 ICtDFT=  3500011 ScaDFX=  1.000000  1.000000  1.000000  1.000000
 FoFCou: FMM=F IPFlag=           0 FMFlag=      100000 FMFlg1=           0
         NFxFlg=           0 DoJE=T BraDBF=F KetDBF=T FulRan=T
         wScrn=  0.000000 ICntrl=       500 IOpCl=  0 I1Cent=   200000004 NGrid=           0
         NMat0=    1 NMatS0=      1 NMatT0=    0 NMatD0=    1 NMtDS0=    0 NMtDT0=    0
 Symmetry not used in FoFCou.
 Requested convergence on RMS density matrix=1.00D-08 within 300 cycles.
 Requested convergence on MAX density matrix=1.00D-06.
 Requested convergence on             energy=1.00D-06.
 No special actions if energy rises.
 Inv3:  Mode=1 IEnd=    14718675.
 Iteration    1 A*A^-1 deviation from unit magnitude is 6.44D-15 for   2196.
 Iteration    1 A*A^-1 deviation from orthogonality  is 3.33D-15 for   2191   1646.
 Iteration    1 A^-1*A deviation from unit magnitude is 6.44D-15 for   2196.
 Iteration    1 A^-1*A deviation from orthogonality  is 2.68D-15 for   1178    110.
 Error on total polarization charges =  0.01080
 SCF Done:  E(RwB97XD) =  -546.507373789     A.U. after   16 cycles
            NFock= 16  Conv=0.26D-08     -V/T= 2.0046

 **********************************************************************

            Population analysis using the SCF Density.

 **********************************************************************

 Alpha  occ. eigenvalues --  -14.47709 -10.32012 -10.31741 -10.29735 -10.29272
 Alpha  occ. eigenvalues --  -10.28807 -10.28499 -10.28032 -10.27781 -10.27769
 Alpha  occ. eigenvalues --  -10.27740 -10.25126 -10.24686  -6.84266  -1.08887
 Alpha  occ. eigenvalues --   -0.95464  -0.90680  -0.85221  -0.84836  -0.81089
 Alpha  occ. eigenvalues --   -0.78712  -0.77258  -0.76792  -0.70473  -0.67664
 Alpha  occ. eigenvalues --   -0.65215  -0.61237  -0.57392  -0.55856  -0.55708
 Alpha  occ. eigenvalues --   -0.53621  -0.52492  -0.51294  -0.50762  -0.50272
 Alpha  occ. eigenvalues --   -0.49075  -0.48043  -0.47887  -0.47624  -0.46447
 Alpha  occ. eigenvalues --   -0.46178  -0.45749  -0.43899  -0.41607  -0.40880
 Alpha  occ. eigenvalues --   -0.39905  -0.38953  -0.35972  -0.29512  -0.28031
 Alpha virt. eigenvalues --    0.01046   0.03888   0.04673   0.04910   0.05975
 Alpha virt. eigenvalues --    0.06103   0.06368   0.07066   0.07436   0.07907
 Alpha virt. eigenvalues --    0.08060   0.08140   0.08514   0.09622   0.09768
 Alpha virt. eigenvalues --    0.10241   0.10470   0.11211   0.11516   0.12293
 Alpha virt. eigenvalues --    0.12699   0.12876   0.13856   0.14227   0.14567
 Alpha virt. eigenvalues --    0.15350   0.15515   0.16280   0.16540   0.16857
 Alpha virt. eigenvalues --    0.17150   0.17508   0.17657   0.18188   0.18289
 Alpha virt. eigenvalues --    0.18705   0.18852   0.19037   0.19703   0.19816
 Alpha virt. eigenvalues --    0.20178   0.20216   0.20722   0.20809   0.21101
 Alpha virt. eigenvalues --    0.21372   0.21939   0.22223   0.22596   0.23220
 Alpha virt. eigenvalues --    0.23373   0.23677   0.24072   0.24443   0.24738
 Alpha virt. eigenvalues --    0.25343   0.25511   0.25816   0.26225   0.26672
 Alpha virt. eigenvalues --    0.27051   0.27150   0.28251   0.28690   0.28980
 Alpha virt. eigenvalues --    0.29415   0.30103   0.30468   0.30591   0.31334
 Alpha virt. eigenvalues --    0.31619   0.31935   0.32221   0.33522   0.33612
 Alpha virt. eigenvalues --    0.34055   0.34286   0.35294   0.35679   0.36430
 Alpha virt. eigenvalues --    0.36661   0.37470   0.37861   0.38188   0.38466
 Alpha virt. eigenvalues --    0.38953   0.39364   0.39838   0.40501   0.41031
 Alpha virt. eigenvalues --    0.41613   0.42296   0.43055   0.43622   0.44297
 Alpha virt. eigenvalues --    0.45519   0.47339   0.48164   0.48776   0.50480
 Alpha virt. eigenvalues --    0.51724   0.52434   0.53059   0.53769   0.55250
 Alpha virt. eigenvalues --    0.56112   0.56890   0.57846   0.58125   0.59276
 Alpha virt. eigenvalues --    0.60013   0.60911   0.61523   0.63199   0.63653
 Alpha virt. eigenvalues --    0.64234   0.64419   0.66038   0.66534   0.67434
 Alpha virt. eigenvalues --    0.68234   0.68640   0.69002   0.70173   0.70836
 Alpha virt. eigenvalues --    0.71782   0.72712   0.72799   0.73498   0.74473
 Alpha virt. eigenvalues --    0.75331   0.75527   0.76091   0.76626   0.77121
 Alpha virt. eigenvalues --    0.77472   0.78393   0.79272   0.79520   0.79747
 Alpha virt. eigenvalues --    0.80853   0.81484   0.82828   0.82970   0.84235
 Alpha virt. eigenvalues --    0.84801   0.85738   0.87249   0.87617   0.88214
 Alpha virt. eigenvalues --    0.90059   0.91102   0.92254   0.92971   0.93798
 Alpha virt. eigenvalues --    0.95164   0.96293   0.97317   0.99228   1.00629
 Alpha virt. eigenvalues --    1.01572   1.02302   1.03486   1.04567   1.05400
 Alpha virt. eigenvalues --    1.05631   1.06650   1.07858   1.07941   1.10097
 Alpha virt. eigenvalues --    1.11386   1.12072   1.13273   1.14204   1.16648
 Alpha virt. eigenvalues --    1.17616   1.18306   1.20161   1.20979   1.21919
 Alpha virt. eigenvalues --    1.22842   1.24177   1.25762   1.27446   1.34007
 Alpha virt. eigenvalues --    1.35986   1.37561   1.40900   1.42575   1.43364
 Alpha virt. eigenvalues --    1.45382   1.46968   1.48722   1.51756   1.53624
 Alpha virt. eigenvalues --    1.54694   1.54959   1.55477   1.56868   1.57055
 Alpha virt. eigenvalues --    1.57834   1.59917   1.62227   1.62527   1.63872
 Alpha virt. eigenvalues --    1.64072   1.64991   1.65848   1.66898   1.68505
 Alpha virt. eigenvalues --    1.69215   1.69702   1.70543   1.72241   1.72507
 Alpha virt. eigenvalues --    1.73263   1.75226   1.76258   1.76852   1.78524
 Alpha virt. eigenvalues --    1.79041   1.80192   1.82326   1.82432   1.83065
 Alpha virt. eigenvalues --    1.85225   1.85953   1.87133   1.88077   1.88905
 Alpha virt. eigenvalues --    1.90770   1.91595   1.93626   1.94900   1.96740
 Alpha virt. eigenvalues --    1.97159   1.97971   2.00064   2.01221   2.03112
 Alpha virt. eigenvalues --    2.04194   2.05121   2.08288   2.08986   2.10254
 Alpha virt. eigenvalues --    2.11865   2.12583   2.12683   2.15272   2.16128
 Alpha virt. eigenvalues --    2.17955   2.18980   2.22678   2.22931   2.25050
 Alpha virt. eigenvalues --    2.25740   2.27042   2.28479   2.30087   2.31869
 Alpha virt. eigenvalues --    2.35211   2.37436   2.38488   2.40349   2.41889
 Alpha virt. eigenvalues --    2.42149   2.44915   2.45537   2.47499   2.53862
 Alpha virt. eigenvalues --    2.54527   2.56483   2.57021   2.57710   2.58328
 Alpha virt. eigenvalues --    2.59147   2.59873   2.60562   2.61579   2.63516
 Alpha virt. eigenvalues --    2.64076   2.65201   2.66364   2.67353   2.68593
 Alpha virt. eigenvalues --    2.69102   2.70114   2.71015   2.72795   2.73260
 Alpha virt. eigenvalues --    2.74678   2.77097   2.78079   2.79354   2.80212
 Alpha virt. eigenvalues --    2.81369   2.82356   2.84372   2.85177   2.85869
 Alpha virt. eigenvalues --    2.87624   2.88961   2.90126   2.91092   2.91918
 Alpha virt. eigenvalues --    2.92770   2.96774   2.97337   3.01244   3.02999
 Alpha virt. eigenvalues --    3.04317   3.07422   3.08526   3.10110   3.11338
 Alpha virt. eigenvalues --    3.15267   3.16465   3.19545   3.20200   3.21978
 Alpha virt. eigenvalues --    3.22930   3.30158   3.35884   3.43525   3.49027
 Alpha virt. eigenvalues --    3.55050   3.56124   3.61845   3.65153   3.72601
 Alpha virt. eigenvalues --    3.77143   3.78714   3.80345   3.82608   3.87586
 Alpha virt. eigenvalues --    3.88442   3.89927   3.91071   3.94221   3.95026
 Alpha virt. eigenvalues --    3.95488   3.96111   4.07325   4.08881   4.10996
 Alpha virt. eigenvalues --    4.20106   4.26513   4.31853   4.41022   4.56735
 Alpha virt. eigenvalues --    4.95947   5.10725   5.30562  14.80018  23.75378
 Alpha virt. eigenvalues --   23.98030  24.06105  24.09487  24.10448  24.13503
 Alpha virt. eigenvalues --   24.15017  24.17645  24.20232  24.26324  24.27932
 Alpha virt. eigenvalues --   24.33723  35.76319
          Condensed to atoms (all electrons):
               1          2          3          4          5          6
     1  C    7.675281   0.465428  -0.391351  -0.378681  -0.663404  -0.056007
     2  C    0.465428   9.934495  -5.521598  -2.100131  -0.578762   0.560064
     3  C   -0.391351  -5.521598  16.770546   2.881921  -1.782438  -1.510619
     4  C   -0.378681  -2.100131   2.881921   8.808753   0.901270  -0.659832
     5  C   -0.663404  -0.578762  -1.782438   0.901270   9.073858  -0.031078
     6  C   -0.056007   0.560064  -1.510619  -0.659832  -0.031078   8.517172
     7  C   -0.292375  -0.396021   0.148829   0.305501  -0.451598   1.117672
     8  C   -0.543293   2.398786  -2.261061  -2.974995   0.049892  -1.300117
     9  H    0.018514   0.007386  -0.033818   0.420199  -0.062141   0.013267
    10  H   -0.001358   0.018975  -0.005493   0.005954  -0.062473   0.443359
    11  H    0.017843   0.008647   0.024253   0.008841   0.007031  -0.036802
    12  N    0.117358   0.124175  -0.281434  -0.378940  -0.165820   0.066070
    13  H   -0.129854   0.380274   0.040890  -0.000450  -0.003257  -0.020043
    14  B    0.362368   0.195612  -0.270346  -0.055694  -0.020005   0.030986
    15  C    0.114934  -0.284428  -0.035241   0.399198  -0.046113   0.016080
    16  H   -0.037577  -0.018090  -0.035227   0.040054   0.014612   0.003696
    17  H    0.069337   0.040500   0.015461  -0.069858  -0.013518  -0.000577
    18  H   -0.022859  -0.030779  -0.110562   0.136080   0.055647   0.001162
    19  C   -0.062505  -0.053315   0.082496   0.008487   0.000518  -0.001325
    20  H   -0.011029   0.017738  -0.001631  -0.001763   0.002498   0.000397
    21  H    0.021330  -0.014975  -0.016333   0.002769  -0.000280   0.000289
    22  H   -0.001867   0.003925  -0.015820  -0.003271  -0.000478   0.000605
    23  C   -0.172810   0.236593  -0.327883  -0.050536  -0.022309   0.013704
    24  H    0.016685  -0.033612   0.013680   0.001933  -0.000008  -0.000573
    25  H   -0.026769   0.027960   0.000966  -0.000988   0.000681  -0.000734
    26  H   -0.044346   0.026225  -0.011009  -0.002460  -0.000468   0.000731
    27  C   -0.042878  -0.054499   0.187414   0.059736  -0.479229  -0.771564
    28  H    0.000737  -0.001187  -0.027295  -0.048649   0.022722   0.007039
    29  H   -0.004998  -0.006545   0.018872   0.125695  -0.135352  -0.018739
    30  H    0.000073  -0.000549  -0.024658  -0.051199   0.008325   0.018245
               7          8          9         10         11         12
     1  C   -0.292375  -0.543293   0.018514  -0.001358   0.017843   0.117358
     2  C   -0.396021   2.398786   0.007386   0.018975   0.008647   0.124175
     3  C    0.148829  -2.261061  -0.033818  -0.005493   0.024253  -0.281434
     4  C    0.305501  -2.974995   0.420199   0.005954   0.008841  -0.378940
     5  C   -0.451598   0.049892  -0.062141  -0.062473   0.007031  -0.165820
     6  C    1.117672  -1.300117   0.013267   0.443359  -0.036802   0.066070
     7  C    7.027272  -1.584907   0.012411  -0.075654   0.404359   0.027518
     8  C   -1.584907  11.589982  -0.020937   0.035079  -0.090621   0.067029
     9  H    0.012411  -0.020937   0.534288  -0.000965   0.001270  -0.011624
    10  H   -0.075654   0.035079  -0.000965   0.475146  -0.013900   0.002301
    11  H    0.404359  -0.090621   0.001270  -0.013900   0.470633  -0.004137
    12  N    0.027518   0.067029  -0.011624   0.002301  -0.004137   7.042267
    13  H   -0.012649   0.003858   0.001050   0.000620  -0.000261   0.036913
    14  B    0.036642   0.045020  -0.001253   0.000934  -0.001571  -0.072886
    15  C    0.021390  -0.506983   0.003785  -0.000073   0.000479   0.244676
    16  H    0.002817  -0.014783  -0.011021   0.000085  -0.000040  -0.031101
    17  H    0.000661   0.046139   0.004113  -0.000073  -0.000132  -0.082830
    18  H   -0.001170  -0.053976  -0.003541  -0.000115  -0.000068  -0.042256
    19  C    0.001202  -0.046068  -0.001111  -0.000040   0.000144  -0.027437
    20  H    0.000604   0.012888  -0.000453  -0.000000  -0.000045  -0.000102
    21  H    0.000258  -0.004011   0.001118  -0.000023  -0.000002   0.010276
    22  H    0.001198   0.004912  -0.000082   0.000011  -0.000050   0.000243
    23  C    0.023976   0.013477   0.001008   0.000196  -0.000837   0.027636
    24  H   -0.002519  -0.000984  -0.000043   0.000016  -0.000160  -0.000625
    25  H   -0.001680   0.007124  -0.000010  -0.000019   0.000497  -0.003378
    26  H    0.001810   0.007627   0.000046   0.000014   0.000003   0.002761
    27  C   -0.043932  -0.005773  -0.019893  -0.018195  -0.001376  -0.019200
    28  H    0.006169  -0.001787  -0.000203  -0.002520   0.000481   0.000415
    29  H    0.004891  -0.011669  -0.005486   0.002510  -0.000147  -0.000927
    30  H    0.003570  -0.002312  -0.000204  -0.001820   0.000418   0.000199
              13         14         15         16         17         18
     1  C   -0.129854   0.362368   0.114934  -0.037577   0.069337  -0.022859
     2  C    0.380274   0.195612  -0.284428  -0.018090   0.040500  -0.030779
     3  C    0.040890  -0.270346  -0.035241  -0.035227   0.015461  -0.110562
     4  C   -0.000450  -0.055694   0.399198   0.040054  -0.069858   0.136080
     5  C   -0.003257  -0.020005  -0.046113   0.014612  -0.013518   0.055647
     6  C   -0.020043   0.030986   0.016080   0.003696  -0.000577   0.001162
     7  C   -0.012649   0.036642   0.021390   0.002817   0.000661  -0.001170
     8  C    0.003858   0.045020  -0.506983  -0.014783   0.046139  -0.053976
     9  H    0.001050  -0.001253   0.003785  -0.011021   0.004113  -0.003541
    10  H    0.000620   0.000934  -0.000073   0.000085  -0.000073  -0.000115
    11  H   -0.000261  -0.001571   0.000479  -0.000040  -0.000132  -0.000068
    12  N    0.036913  -0.072886   0.244676  -0.031101  -0.082830  -0.042256
    13  H    0.511802  -0.016919  -0.001054  -0.000666   0.000708  -0.000722
    14  B   -0.016919   4.160994  -0.062532   0.004744  -0.025949   0.003406
    15  C   -0.001054  -0.062532   5.427999   0.414938   0.370962   0.429721
    16  H   -0.000666   0.004744   0.414938   0.521303  -0.048866  -0.028756
    17  H    0.000708  -0.025949   0.370962  -0.048866   0.582741  -0.042114
    18  H   -0.000722   0.003406   0.429721  -0.028756  -0.042114   0.541881
    19  C   -0.001936   0.337307  -0.013622   0.006907   0.018023  -0.001890
    20  H   -0.001359  -0.092952  -0.015859   0.003577  -0.009168   0.002367
    21  H   -0.000930  -0.076384   0.037920  -0.017126   0.005517   0.001329
    22  H   -0.000390  -0.092443  -0.000460   0.000492   0.000921   0.000081
    23  C   -0.000873   0.413782  -0.007434  -0.002403  -0.004775   0.000532
    24  H    0.003159  -0.107565   0.001636  -0.000366  -0.001184   0.000282
    25  H    0.009017  -0.079858  -0.001446   0.000422  -0.000902  -0.000310
    26  H    0.000635  -0.101767  -0.003396  -0.000289  -0.000127  -0.000072
    27  C    0.000437  -0.000857  -0.007814   0.003083  -0.001601   0.003754
    28  H   -0.000021  -0.000106   0.000093  -0.000078  -0.000006   0.000105
    29  H   -0.000114  -0.000007   0.001276   0.000523   0.000020   0.000615
    30  H   -0.000009  -0.000024  -0.000202  -0.000017   0.000021  -0.000003
              19         20         21         22         23         24
     1  C   -0.062505  -0.011029   0.021330  -0.001867  -0.172810   0.016685
     2  C   -0.053315   0.017738  -0.014975   0.003925   0.236593  -0.033612
     3  C    0.082496  -0.001631  -0.016333  -0.015820  -0.327883   0.013680
     4  C    0.008487  -0.001763   0.002769  -0.003271  -0.050536   0.001933
     5  C    0.000518   0.002498  -0.000280  -0.000478  -0.022309  -0.000008
     6  C   -0.001325   0.000397   0.000289   0.000605   0.013704  -0.000573
     7  C    0.001202   0.000604   0.000258   0.001198   0.023976  -0.002519
     8  C   -0.046068   0.012888  -0.004011   0.004912   0.013477  -0.000984
     9  H   -0.001111  -0.000453   0.001118  -0.000082   0.001008  -0.000043
    10  H   -0.000040  -0.000000  -0.000023   0.000011   0.000196   0.000016
    11  H    0.000144  -0.000045  -0.000002  -0.000050  -0.000837  -0.000160
    12  N   -0.027437  -0.000102   0.010276   0.000243   0.027636  -0.000625
    13  H   -0.001936  -0.001359  -0.000930  -0.000390  -0.000873   0.003159
    14  B    0.337307  -0.092952  -0.076384  -0.092443   0.413782  -0.107565
    15  C   -0.013622  -0.015859   0.037920  -0.000460  -0.007434   0.001636
    16  H    0.006907   0.003577  -0.017126   0.000492  -0.002403  -0.000366
    17  H    0.018023  -0.009168   0.005517   0.000921  -0.004775  -0.001184
    18  H   -0.001890   0.002367   0.001329   0.000081   0.000532   0.000282
    19  C    5.321380   0.404264   0.391031   0.413880  -0.104940  -0.004838
    20  H    0.404264   0.548485  -0.027344  -0.001004  -0.007525   0.004850
    21  H    0.391031  -0.027344   0.576857  -0.024977  -0.007892  -0.002214
    22  H    0.413880  -0.001004  -0.024977   0.526044   0.016435  -0.000769
    23  C   -0.104940  -0.007525  -0.007892   0.016435   5.408592   0.409973
    24  H   -0.004838   0.004850  -0.002214  -0.000769   0.409973   0.554555
    25  H    0.001033  -0.002359  -0.004045   0.001582   0.392579  -0.008261
    26  H    0.011673  -0.002951   0.000151   0.008390   0.419282  -0.016267
    27  C    0.000375   0.000123  -0.000510  -0.000014  -0.000219   0.000015
    28  H    0.000007   0.000001   0.000006  -0.000002  -0.000014   0.000002
    29  H    0.000078   0.000012  -0.000010   0.000008  -0.000077  -0.000002
    30  H   -0.000016  -0.000003  -0.000003  -0.000001   0.000018  -0.000001
              25         26         27         28         29         30
     1  C   -0.026769  -0.044346  -0.042878   0.000737  -0.004998   0.000073
     2  C    0.027960   0.026225  -0.054499  -0.001187  -0.006545  -0.000549
     3  C    0.000966  -0.011009   0.187414  -0.027295   0.018872  -0.024658
     4  C   -0.000988  -0.002460   0.059736  -0.048649   0.125695  -0.051199
     5  C    0.000681  -0.000468  -0.479229   0.022722  -0.135352   0.008325
     6  C   -0.000734   0.000731  -0.771564   0.007039  -0.018739   0.018245
     7  C   -0.001680   0.001810  -0.043932   0.006169   0.004891   0.003570
     8  C    0.007124   0.007627  -0.005773  -0.001787  -0.011669  -0.002312
     9  H   -0.000010   0.000046  -0.019893  -0.000203  -0.005486  -0.000204
    10  H   -0.000019   0.000014  -0.018195  -0.002520   0.002510  -0.001820
    11  H    0.000497   0.000003  -0.001376   0.000481  -0.000147   0.000418
    12  N   -0.003378   0.002761  -0.019200   0.000415  -0.000927   0.000199
    13  H    0.009017   0.000635   0.000437  -0.000021  -0.000114  -0.000009
    14  B   -0.079858  -0.101767  -0.000857  -0.000106  -0.000007  -0.000024
    15  C   -0.001446  -0.003396  -0.007814   0.000093   0.001276  -0.000202
    16  H    0.000422  -0.000289   0.003083  -0.000078   0.000523  -0.000017
    17  H   -0.000902  -0.000127  -0.001601  -0.000006   0.000020   0.000021
    18  H   -0.000310  -0.000072   0.003754   0.000105   0.000615  -0.000003
    19  C    0.001033   0.011673   0.000375   0.000007   0.000078  -0.000016
    20  H   -0.002359  -0.002951   0.000123   0.000001   0.000012  -0.000003
    21  H   -0.004045   0.000151  -0.000510   0.000006  -0.000010  -0.000003
    22  H    0.001582   0.008390  -0.000014  -0.000002   0.000008  -0.000001
    23  C    0.392579   0.419282  -0.000219  -0.000014  -0.000077   0.000018
    24  H   -0.008261  -0.016267   0.000015   0.000002  -0.000002  -0.000001
    25  H    0.578342  -0.025058   0.000115   0.000006  -0.000003  -0.000002
    26  H   -0.025058   0.562815   0.000023  -0.000001  -0.000001   0.000001
    27  C    0.000115   0.000023   6.483835   0.394077   0.370300   0.399762
    28  H    0.000006  -0.000001   0.394077   0.541991  -0.017178  -0.058404
    29  H   -0.000003  -0.000001   0.370300  -0.017178   0.516229  -0.016749
    30  H   -0.000002   0.000001   0.399762  -0.058404  -0.016749   0.542844
 Mulliken charges:
               1
     1  C    0.004074
     2  C    0.647710
     3  C   -1.521509
     4  C   -1.328946
     5  C    0.381679
     6  C   -0.402528
     7  C   -0.286244
     8  C    1.142461
     9  H    0.154332
    10  H    0.197522
    11  H    0.205253
    12  N    0.352862
    13  H    0.202142
    14  B    0.487323
    15  C   -0.498430
    16  H    0.229156
    17  H    0.146557
    18  H    0.162231
    19  C   -0.679762
    20  H    0.177747
    21  H    0.148210
    22  H    0.162901
    23  C   -0.667256
    24  H    0.173203
    25  H    0.135498
    26  H    0.166026
    27  C   -0.435493
    28  H    0.183601
    29  H    0.176978
    30  H    0.182701
 Sum of Mulliken charges =  -0.00000
 Mulliken charges with hydrogens summed into heavy atoms:
               1
     1  C    0.004074
     2  C    0.849852
     3  C   -1.521509
     4  C   -1.174614
     5  C    0.381679
     6  C   -0.205007
     7  C   -0.080991
     8  C    1.142461
    12  N    0.352862
    14  B    0.487323
    15  C    0.039514
    19  C   -0.190905
    23  C   -0.192528
    27  C    0.107787
 Electronic spatial extent (au):  <R**2>=           4526.9676
 Charge=              0.0000 electrons
 Dipole moment (field-independent basis, Debye):
    X=              1.7093    Y=              1.0038    Z=             -0.1558  Tot=              1.9884
 Quadrupole moment (field-independent basis, Debye-Ang):
   XX=            -83.0487   YY=            -79.3995   ZZ=            -89.0266
   XY=             -0.7637   XZ=             -1.6403   YZ=             -0.5187
 Traceless Quadrupole moment (field-independent basis, Debye-Ang):
   XX=              0.7762   YY=              4.4254   ZZ=             -5.2016
   XY=             -0.7637   XZ=             -1.6403   YZ=             -0.5187
 Octapole moment (field-independent basis, Debye-Ang**2):
  XXX=            406.5098  YYY=             -8.0066  ZZZ=             31.1659  XYY=            131.9081
  XXY=             -4.6066  XXZ=             12.3047  XZZ=            162.2580  YZZ=            -16.0163
  YYZ=             10.9710  XYZ=              1.2085
 Hexadecapole moment (field-independent basis, Debye-Ang**3):
 XXXX=          -3072.4223 YYYY=          -2939.6805 ZZZZ=           -152.5156 XXXY=            659.9581
 XXXZ=            -54.1202 YYYX=            612.5856 YYYZ=            -22.9825 ZZZX=            -40.9525
 ZZZY=             -7.6327 XXYY=           -972.1506 XXZZ=           -620.1600 YYZZ=           -528.5739
 XXYZ=              3.4481 YYXZ=            -19.5002 ZZXY=            238.5629
 N-N= 8.272763954107D+02 E-N=-2.922233113784D+03  KE= 5.440073607290D+02
 Breneman (CHELPG) radii used.
 Generate Potential Derived Charges using the Breneman model, NDens= 1.
 Grid spacing= 0.300 Box extension= 2.800
 NStep X,Y,Z=   44     52     26   Total possible points=       59488
 Number of Points to Fit=   17872

 **********************************************************************

            Electrostatic Properties Using The SCF Density.

 **********************************************************************

       Atomic Center    1 is at  -1.113130 -1.238193 -0.215190
       Atomic Center    2 is at  -2.493862 -1.267391 -0.131970
       Atomic Center    3 is at  -1.835693  0.900828 -0.158409
       Atomic Center    4 is at  -1.944848  2.300921 -0.148937
       Atomic Center    5 is at  -3.203280  2.864040 -0.059713
       Atomic Center    6 is at  -4.347493  2.030496  0.017744
       Atomic Center    7 is at  -4.246471  0.658374  0.008167
       Atomic Center    8 is at  -2.973739  0.068889 -0.082715
       Atomic Center    9 is at  -1.066543  2.935628 -0.196445
       Atomic Center   10 is at  -5.325225  2.496891  0.088040
       Atomic Center   11 is at  -5.134980  0.038848  0.068410
       Atomic Center   12 is at  -0.726167  0.106536 -0.238792
       Atomic Center   13 is at  -3.093156 -2.164340 -0.090258
       Atomic Center   14 is at  -0.203052 -2.489530 -0.115804
       Atomic Center   15 is at   0.617162  0.625089 -0.388446
       Atomic Center   16 is at   1.094002  0.798774  0.580633
       Atomic Center   17 is at   1.223097 -0.071935 -0.962539
       Atomic Center   18 is at   0.582067  1.567653 -0.936278
       Atomic Center   19 is at   1.341035 -2.432120  0.216963
       Atomic Center   20 is at   1.898028 -2.302025 -0.722464
       Atomic Center   21 is at   1.639348 -1.611012  0.873128
       Atomic Center   22 is at   1.694912 -3.372285  0.650397
       Atomic Center   23 is at  -0.838882 -3.919534 -0.313996
       Atomic Center   24 is at  -0.846018 -4.436671  0.655265
       Atomic Center   25 is at  -1.852697 -3.944223 -0.717562
       Atomic Center   26 is at  -0.195216 -4.528874 -0.959905
       Atomic Center   27 is at  -3.381719  4.360000 -0.038035
       Atomic Center   28 is at  -3.878268  4.681037  0.882400
       Atomic Center   29 is at  -2.422994  4.878103 -0.103356
       Atomic Center   30 is at  -4.003330  4.690924 -0.875250
   17872 points will be used for fitting atomic charges
 Fitting point charges to electrostatic potential
 Charges from ESP fit, RMS=   0.00382 RRMS=   0.33066:
 ESP charges:
               1
     1  C   -0.228687
     2  C   -0.345272
     3  C    0.170003
     4  C   -0.378500
     5  C    0.215500
     6  C   -0.236733
     7  C   -0.226099
     8  C    0.165119
     9  H    0.168644
    10  H    0.132796
    11  H    0.140571
    12  N   -0.052384
    13  H    0.181593
    14  B    0.595616
    15  C   -0.066336
    16  H    0.066937
    17  H    0.070242
    18  H    0.062082
    19  C   -0.425657
    20  H    0.089718
    21  H    0.068613
    22  H    0.076355
    23  C   -0.478438
    24  H    0.095423
    25  H    0.077934
    26  H    0.090426
    27  C   -0.241263
    28  H    0.067526
    29  H    0.073930
    30  H    0.070341
 Sum of ESP charges =  -0.00000
 ESP charges with hydrogens summed into heavy atoms:
               1
     1  C   -0.228687
     2  C   -0.163678
     3  C    0.170003
     4  C   -0.209856
     5  C    0.215500
     6  C   -0.103937
     7  C   -0.085528
     8  C    0.165119
    12  N   -0.052384
    14  B    0.595616
    15  C    0.132925
    19  C   -0.190971
    23  C   -0.214655
    27  C   -0.029466
 Charge=  -0.00000 Dipole=     1.6415     0.9964    -0.1544 Tot=     1.9265
 -----------------------------------------------------------------

              Electrostatic Properties (Atomic Units)

 -----------------------------------------------------------------
    Center     Electric         -------- Electric Field --------
               Potential          X             Y             Z
 -----------------------------------------------------------------
    1 Atom    -14.772768
    2 Atom    -14.790243
    3 Atom    -14.749750
    4 Atom    -14.779461
    5 Atom    -14.768199
    6 Atom    -14.789539
    7 Atom    -14.780752
    8 Atom    -14.789167
    9 Atom     -1.099304
   10 Atom     -1.116559
   11 Atom     -1.111571
   12 Atom    -18.348660
   13 Atom     -1.107926
   14 Atom    -11.469626
   15 Atom    -14.730887
   16 Atom     -1.100297
   17 Atom     -1.094126
   18 Atom     -1.092984
   19 Atom    -14.803378
   20 Atom     -1.102065
   21 Atom     -1.118894
   22 Atom     -1.123093
   23 Atom    -14.810972
   24 Atom     -1.115353
   25 Atom     -1.133308
   26 Atom     -1.120165
   27 Atom    -14.779033
   28 Atom     -1.116599
   29 Atom     -1.116838
   30 Atom     -1.116506
 -----------------------------------------------------------------
 Unable to Open any file for archive entry.
 1\1\GINC-IRENE5571\SP\RwB97XD\GenECP\C12H16B1N1\PENASFRA\10-Apr-2024\0
 \\# wb97xd/genecp scrf=(solvent=toluene,pcm) nosymm pop=(chelpg) scfcy
 c=300\\me_indole_chelpg\\0,1\C,0,-1.11313,-1.238193,-0.21519\C,0,-2.49
 3862,-1.267391,-0.13197\C,0,-1.835693,0.900828,-0.158409\C,0,-1.944848
 ,2.300921,-0.148937\C,0,-3.20328,2.86404,-0.059713\C,0,-4.347493,2.030
 496,0.017744\C,0,-4.246471,0.658374,0.008167\C,0,-2.973739,0.068889,-0
 .082715\H,0,-1.066543,2.935628,-0.196445\H,0,-5.325225,2.496891,0.0880
 4\H,0,-5.13498,0.038848,0.06841\N,0,-0.726167,0.106536,-0.238792\H,0,-
 3.093156,-2.16434,-0.090258\B,0,-0.203052,-2.48953,-0.115804\C,0,0.617
 162,0.625089,-0.388446\H,0,1.094002,0.798774,0.580633\H,0,1.223097,-0.
 071935,-0.962539\H,0,0.582067,1.567653,-0.936278\C,0,1.341035,-2.43212
 ,0.216963\H,0,1.898028,-2.302025,-0.722464\H,0,1.639348,-1.611012,0.87
 3128\H,0,1.694912,-3.372285,0.650397\C,0,-0.838882,-3.919534,-0.313996
 \H,0,-0.846018,-4.436671,0.655265\H,0,-1.852697,-3.944223,-0.717562\H,
 0,-0.195216,-4.528874,-0.959905\C,0,-3.381719,4.36,-0.038035\H,0,-3.87
 8268,4.681037,0.8824\H,0,-2.422994,4.878103,-0.103356\H,0,-4.00333,4.6
 90924,-0.87525\\Version=AS64L-G16RevC.02\HF=-546.5073738\RMSD=2.598e-0
 9\Dipole=0.6724999,0.3949444,-0.0612935\Quadrupole=0.577102,3.2901849,
 -3.8672868,-0.5677607,-1.2195291,-0.3856651\PG=C01 [X(C12H16B1N1)]\\@
 The archive entry for this job was punched.


 MANHOOD BEGINS BY TRYING TO SHAVE FACE,
 AND ENDS BY TRYING TO SAVE FACE.
 Job cpu time:       0 days  0 hours 54 minutes 54.1 seconds.
 Elapsed time:       0 days  0 hours  0 minutes 36.3 seconds.
 File lengths (MBytes):  RWF=    178 Int=      0 D2E=      0 Chk=     12 Scr=      1
 Normal termination of Gaussian 16 at Wed Apr 10 15:26:19 2024.
