 Entering Gaussian System, Link 0=/ccc/products/gaussian-16-C.02/system/default/g16/g16
 Input=me_indenoPy_chelpg.gjf
 Output=me_indenoPy_chelpg.log
 Initial command:
 /ccc/products/gaussian-16-C.02/system/default/g16/l1.exe "/ccc/scratch/cont003/gen7343/penasfra/flp/b-n_flp/me_indenoPy/reactant/Gau-517312.inp" -scrdir="/ccc/scratch/cont003/gen7343/penasfra/flp/b-n_flp/me_indenoPy/reactant/"
 Entering Link 1 = /ccc/products/gaussian-16-C.02/system/default/g16/l1.exe PID=    517361.
  
 Copyright (c) 1988-2021, Gaussian, Inc.  All Rights Reserved.
  
 This is part of the Gaussian(R) 16 program.  It is based on
 the Gaussian(R) 09 system (copyright 2009, Gaussian, Inc.),
 the Gaussian(R) 03 system (copyright 2003, Gaussian, Inc.),
 the Gaussian(R) 98 system (copyright 1998, Gaussian, Inc.),
 the Gaussian(R) 94 system (copyright 1995, Gaussian, Inc.),
 the Gaussian 92(TM) system (copyright 1992, Gaussian, Inc.),
 the Gaussian 90(TM) system (copyright 1990, Gaussian, Inc.),
 the Gaussian 88(TM) system (copyright 1988, Gaussian, Inc.),
 the Gaussian 86(TM) system (copyright 1986, Carnegie Mellon
 University), and the Gaussian 82(TM) system (copyright 1983,
 Carnegie Mellon University). Gaussian is a federally registered
 trademark of Gaussian, Inc.
  
 This software contains proprietary and confidential information,
 including trade secrets, belonging to Gaussian, Inc.
  
 This software is provided under written license and may be
 used, copied, transmitted, or stored only in accord with that
 written license.
  
 The following legend is applicable only to US Government
 contracts under FAR:
  
                    RESTRICTED RIGHTS LEGEND
  
 Use, reproduction and disclosure by the US Government is
 subject to restrictions as set forth in subparagraphs (a)
 and (c) of the Commercial Computer Software - Restricted
 Rights clause in FAR 52.227-19.
  
 Gaussian, Inc.
 340 Quinnipiac St., Bldg. 40, Wallingford CT 06492
  
  
 ---------------------------------------------------------------
 Warning -- This program may not be used in any manner that
 competes with the business of Gaussian, Inc. or will provide
 assistance to any competitor of Gaussian, Inc.  The licensee
 of this program is prohibited from giving any competitor of
 Gaussian, Inc. access to this program.  By using this program,
 the user acknowledges that Gaussian, Inc. is engaged in the
 business of creating and licensing software in the field of
 computational chemistry and represents and warrants to the
 licensee that it is not a competitor of Gaussian, Inc. and that
 it will not use this program in any manner prohibited above.
 ---------------------------------------------------------------
  

 Cite this work as:
 Gaussian 16, Revision C.02,
 M. J. Frisch, G. W. Trucks, H. B. Schlegel, G. E. Scuseria, 
 M. A. Robb, J. R. Cheeseman, G. Scalmani, V. Barone, 
 G. A. Petersson, H. Nakatsuji, X. Li, M. Caricato, A. V. Marenich, 
 J. Bloino, B. G. Janesko, R. Gomperts, B. Mennucci, H. P. Hratchian, 
 J. V. Ortiz, A. F. Izmaylov, J. L. Sonnenberg, D. Williams-Young, 
 F. Ding, F. Lipparini, F. Egidi, J. Goings, B. Peng, A. Petrone, 
 T. Henderson, D. Ranasinghe, V. G. Zakrzewski, J. Gao, N. Rega, 
 G. Zheng, W. Liang, M. Hada, M. Ehara, K. Toyota, R. Fukuda, 
 J. Hasegawa, M. Ishida, T. Nakajima, Y. Honda, O. Kitao, H. Nakai, 
 T. Vreven, K. Throssell, J. A. Montgomery, Jr., J. E. Peralta, 
 F. Ogliaro, M. J. Bearpark, J. J. Heyd, E. N. Brothers, K. N. Kudin, 
 V. N. Staroverov, T. A. Keith, R. Kobayashi, J. Normand, 
 K. Raghavachari, A. P. Rendell, J. C. Burant, S. S. Iyengar, 
 J. Tomasi, M. Cossi, J. M. Millam, M. Klene, C. Adamo, R. Cammi, 
 J. W. Ochterski, R. L. Martin, K. Morokuma, O. Farkas, 
 J. B. Foresman, and D. J. Fox, Gaussian, Inc., Wallingford CT, 2019.
 
 ******************************************
 Gaussian 16:  AS64L-G16RevC.02  7-Dec-2021
                10-Apr-2024 
 ******************************************
 %nprocshared=128
 Will use up to  128 processors via shared memory.
 %mem=30GB
 %chk=me_indenoPy_chelpg.chk
 ----------------------------------------------------------------------
 # wb97xd/genecp scrf=(solvent=toluene,pcm) nosymm pop=(chelpg) scfcyc=
 300
 ----------------------------------------------------------------------
 1/38=1,172=1/1;
 2/12=2,15=1,17=6,18=5,40=1/2;
 3/5=7,11=2,16=1,17=8,25=1,30=1,70=2201,72=13,74=-58/1,2,3;
 4//1;
 5/5=2,7=300,38=5,53=13/2;
 6/7=2,8=2,9=2,10=2,15=8,20=3,28=1/1,2;
 99/5=1,9=1/99;
 ------------------
 me_indenoPy_chelpg
 ------------------
 Symbolic Z-matrix:
 Charge =  0 Multiplicity = 1
 C                     0.67355   0.7215   -0.45677 
 C                     1.81843   0.73699   0.34342 
 C                     2.20087   1.82335   1.12964 
 C                     1.35358   2.93509   1.07609 
 C                     0.20461   2.93955   0.28198 
 C                    -0.14976   1.83593  -0.49291 
 H                     1.58377   3.82094   1.66103 
 H                    -0.42538   3.82274   0.26921 
 H                    -1.04616   1.85702  -1.10356 
 C                     0.55622  -0.60834  -1.1743 
 H                     0.56336  -0.48507  -2.26191 
 H                    -0.37031  -1.12983  -0.91401 
 C                     2.49733  -0.54627   0.19973 
 C                     1.7748   -1.35538  -0.68741 
 C                     4.07939  -2.11642   0.54622 
 C                     2.2609   -2.61973  -0.95431 
 C                     3.44379  -3.00236  -0.31733 
 H                     4.99907  -2.40631   1.04527 
 H                     1.75137  -3.29778  -1.63098 
 H                     3.8725   -3.98235  -0.48794 
 N                     3.62237  -0.88846   0.81587 
 B                     3.51705   1.73934   2.00291 
 C                     3.38958   1.30183   3.50643 
 H                     4.33689   1.00942   3.96593 
 H                     3.01167   2.17539   4.06018 
 H                     2.65118   0.50882   3.6534 
 C                     4.8539    2.2997    1.39709 
 H                     4.8042    3.39683   1.47642 
 H                     5.75238   1.97464   1.92732 
 H                     4.95797   2.07853   0.33126 
 
                          Input orientation:                          
 ---------------------------------------------------------------------
 Center     Atomic      Atomic             Coordinates (Angstroms)
 Number     Number       Type             X           Y           Z
 ---------------------------------------------------------------------
      1          6           0        0.673552    0.721495   -0.456768
      2          6           0        1.818430    0.736988    0.343420
      3          6           0        2.200871    1.823349    1.129644
      4          6           0        1.353581    2.935085    1.076090
      5          6           0        0.204608    2.939550    0.281978
      6          6           0       -0.149757    1.835927   -0.492910
      7          1           0        1.583774    3.820940    1.661028
      8          1           0       -0.425376    3.822736    0.269213
      9          1           0       -1.046158    1.857015   -1.103561
     10          6           0        0.556218   -0.608335   -1.174298
     11          1           0        0.563361   -0.485066   -2.261914
     12          1           0       -0.370314   -1.129826   -0.914011
     13          6           0        2.497326   -0.546272    0.199733
     14          6           0        1.774798   -1.355379   -0.687407
     15          6           0        4.079393   -2.116420    0.546219
     16          6           0        2.260895   -2.619727   -0.954311
     17          6           0        3.443790   -3.002359   -0.317329
     18          1           0        4.999066   -2.406311    1.045269
     19          1           0        1.751368   -3.297784   -1.630975
     20          1           0        3.872503   -3.982353   -0.487942
     21          7           0        3.622373   -0.888459    0.815874
     22          5           0        3.517046    1.739344    2.002910
     23          6           0        3.389580    1.301827    3.506430
     24          1           0        4.336892    1.009419    3.965928
     25          1           0        3.011673    2.175392    4.060179
     26          1           0        2.651180    0.508822    3.653402
     27          6           0        4.853904    2.299702    1.397089
     28          1           0        4.804199    3.396833    1.476416
     29          1           0        5.752375    1.974636    1.927323
     30          1           0        4.957969    2.078527    0.331263
 ---------------------------------------------------------------------
                    Distance matrix (angstroms):
                    1          2          3          4          5
     1  C    0.000000
     2  C    1.396885   0.000000
     3  C    2.462415   1.394485   0.000000
     4  C    2.777062   2.363159   1.398830   0.000000
     5  C    2.384412   2.731204   2.439161   1.396701   0.000000
     6  C    1.386038   2.404345   2.856272   2.435146   1.394277
     7  H    3.862658   3.361832   2.157208   1.086223   2.140263
     8  H    3.369330   3.816021   3.411021   2.145615   1.084924
     9  H    2.159896   3.399129   3.941007   3.416410   2.157780
    10  C    1.515607   2.388837   3.731772   4.272688   3.851215
    11  H    2.174048   3.139487   4.417339   4.843981   4.281131
    12  H    2.173963   3.139543   4.416872   4.843121   4.280274
    13  C    2.316113   1.458870   2.562757   3.767758   4.173041
    14  C    2.362063   2.332918   3.686126   4.657835   4.674572
    15  C    4.545272   3.646233   4.403522   5.764418   6.375470
    16  C    3.732422   3.625937   4.907891   5.983451   6.054939
    17  C    4.643356   4.130508   5.189030   6.447002   6.793950
    18  H    5.545210   4.526518   5.072183   6.466918   7.221334
    19  H    4.323778   4.492451   5.835158   6.806988   6.704938
    20  H    5.688624   5.213689   6.254368   7.526095   7.871402
    21  N    3.592647   2.473763   3.077828   4.453607   5.159439
    22  B    3.895060   2.577580   1.581761   2.639957   3.921014
    23  C    4.839476   3.576617   2.708159   3.566423   4.819053
    24  H    5.750061   4.420343   3.642743   4.578154   5.862821
    25  H    5.289937   4.160184   3.060943   3.497312   4.768475
    26  H    4.566152   3.420747   2.880992   3.770020   4.822930
    27  C    4.837651   3.573009   2.708694   3.571976   4.823778
    28  H    5.287426   4.156113   3.061604   3.504317   4.774100
    29  H    5.748799   4.417742   3.643125   4.582188   5.866510
    30  H    4.562758   3.414173   2.881687   3.778898   4.830966
                    6          7          8          9         10
     6  C    0.000000
     7  H    3.403653   0.000000
     8  H    2.145742   2.444143   0.000000
     9  H    1.084838   4.291445   2.476679   0.000000
    10  C    2.633839   5.358491   4.762525   2.941184   0.000000
    11  H    3.004151   5.913747   5.093266   3.068823   1.094603
    12  H    3.003608   5.912645   5.092241   3.068210   1.094607
    13  C    3.627902   4.694944   5.256924   4.475561   2.379015
    14  C    3.731779   5.687347   5.706905   4.295399   1.509992
    15  C    5.881033   6.536295   7.459440   6.691878   4.200864
    16  C    5.086943   6.984317   7.086494   5.567773   2.645754
    17  C    6.029380   7.343771   7.867426   6.662680   3.847573
    18  H    6.846383   7.128957   8.296256   7.703126   5.281865
    19  H    5.591463   7.844846   7.684448   5.888656   2.978267
    20  H    7.073258   8.411167   8.942285   7.659663   4.780463
    21  N    4.833649   5.200828   6.235260   5.746046   3.666137
    22  B    4.436653   2.861375   4.784236   5.521489   4.936877
    23  C    5.367205   3.607267   5.602539   6.421528   5.795332
    24  H    6.379214   4.560359   6.652793   7.442806   6.582746
    25  H    5.553422   3.240779   5.375730   6.575072   6.417020
    26  H    5.176713   4.009867   5.648005   6.173867   5.379925
    27  C    5.368781   3.616294   5.609147   6.423391   5.791271
    28  H    5.554849   3.253473   5.383975   6.576777   6.411942
    29  H    6.380590   4.566945   6.658033   7.444471   6.579653
    30  H    5.179477   4.023614   5.659198   6.177162   5.372276
                   11         12         13         14         15
    11  H    0.000000
    12  H    1.761904   0.000000
    13  C    3.131082   3.131185   0.000000
    14  C    2.168893   2.168808   1.401327   0.000000
    15  C    4.786377   4.785972   2.255738   2.722531   0.000000
    16  C    3.024603   3.024019   2.384729   1.380617   2.410776
    17  C    4.291276   4.290664   2.682445   2.373823   1.390897
    18  H    5.856972   5.856486   3.230074   3.808219   1.085765
    19  H    3.117824   3.116988   3.388032   2.159585   3.399337
    20  H    5.131122   5.130296   3.764394   3.367662   2.143361
    21  N    4.358103   4.358017   1.327574   2.427221   1.337710
    22  B    5.644553   5.643769   3.084691   4.455395   4.159940
    23  C    6.667405   6.292061   3.891765   5.220779   4.574178
    24  H    7.433642   7.109709   4.470839   5.814647   4.640214
    25  H    7.282934   6.863299   4.751321   6.044483   5.648680
    26  H    6.351202   5.716280   3.614516   4.804780   4.311180
    27  C    6.289038   6.662980   3.884159   5.213985   4.563549
    28  H    6.857766   7.278761   4.743381   6.036797   5.637958
    29  H    7.108144   7.429548   4.464850   5.809211   4.630665
    30  H    5.710443   6.343094   3.600227   4.791866   4.291350
                   16         17         18         19         20
    16  C    0.000000
    17  C    1.396923   0.000000
    18  H    3.397271   2.151936   0.000000
    19  H    1.085013   2.162691   4.301691   0.000000
    20  H    2.161372   1.083186   2.470585   2.504870   0.000000
    21  N    2.825680   2.405122   2.061985   3.910572   3.366702
    22  B    5.415217   5.279453   4.505543   6.457197   6.250481
    23  C    6.045720   5.757611   4.732657   7.087531   6.641595
    24  H    6.456719   5.936184   4.542679   7.520788   6.705998
    25  H    6.978678   6.793998   5.833645   7.995828   7.703522
    26  H    5.583114   5.359415   4.562119   6.574538   6.230009
    27  C    6.037678   5.748000   4.721378   7.080025   6.631795
    28  H    6.969636   6.783649   5.822400   7.987087   7.692798
    29  H    6.449994   5.927774   4.531908   7.514516   6.697249
    30  H    5.567809   5.341237   4.541505   6.560289   6.211570
                   21         22         23         24         25
    21  N    0.000000
    22  B    2.885394   0.000000
    23  C    3.477159   1.571064   0.000000
    24  H    3.746374   2.249084   1.092722   0.000000
    25  H    4.503960   2.162844   1.101166   1.767649   0.000000
    26  H    3.308652   2.233390   1.093477   1.786028   1.752963
    27  C    3.466821   1.571054   2.754872   2.920799   3.240573
    28  H    4.494080   2.163615   3.242091   3.480775   3.373559
    29  H    3.737585   2.248949   2.920454   2.662921   3.478624
    30  H    3.289631   2.232870   3.625575   3.839208   4.207406
                   26         27         28         29         30
    26  H    0.000000
    27  C    3.626319   0.000000
    28  H    4.208963   1.101118   0.000000
    29  H    3.839970   1.092733   1.767767   0.000000
    30  H    4.338416   1.093496   1.752984   1.785856   0.000000
 Symmetry turned off by external request.
 Stoichiometry    C14H14BN
 Framework group  C1[X(C14H14BN)]
 Deg. of freedom    84
 Full point group                 C1      NOp   1
 Rotational constants (GHZ):           0.7469690           0.5324257           0.3382747
 General basis read from cards:  (5D, 7F)
 ======================================================================================================
                                       Pseudopotential Parameters
 ======================================================================================================
  Center     Atomic      Valence      Angular      Power
  Number     Number     Electrons     Momentum     of R      Exponent        Coefficient   SO-Coeffient
 ======================================================================================================
    1          6
                                   No pseudopotential on this center.
    2          6
                                   No pseudopotential on this center.
    3          6
                                   No pseudopotential on this center.
    4          6
                                   No pseudopotential on this center.
    5          6
                                   No pseudopotential on this center.
    6          6
                                   No pseudopotential on this center.
    7          1
                                   No pseudopotential on this center.
    8          1
                                   No pseudopotential on this center.
    9          1
                                   No pseudopotential on this center.
   10          6
                                   No pseudopotential on this center.
   11          1
                                   No pseudopotential on this center.
   12          1
                                   No pseudopotential on this center.
   13          6
                                   No pseudopotential on this center.
   14          6
                                   No pseudopotential on this center.
   15          6
                                   No pseudopotential on this center.
   16          6
                                   No pseudopotential on this center.
   17          6
                                   No pseudopotential on this center.
   18          1
                                   No pseudopotential on this center.
   19          1
                                   No pseudopotential on this center.
   20          1
                                   No pseudopotential on this center.
   21          7
                                   No pseudopotential on this center.
   22          5
                                   No pseudopotential on this center.
   23          6
                                   No pseudopotential on this center.
   24          1
                                   No pseudopotential on this center.
   25          1
                                   No pseudopotential on this center.
   26          1
                                   No pseudopotential on this center.
   27          6
                                   No pseudopotential on this center.
   28          1
                                   No pseudopotential on this center.
   29          1
                                   No pseudopotential on this center.
   30          1
                                   No pseudopotential on this center.
 ======================================================================================================
   450 basis functions,   702 primitive gaussians,   466 cartesian basis functions
    55 alpha electrons       55 beta electrons
       nuclear repulsion energy       998.4305379363 Hartrees.
 NAtoms=   30 NActive=   30 NUniq=   30 SFac= 1.00D+00 NAtFMM=   60 NAOKFM=F Big=F
 Integral buffers will be    131072 words long.
 Raffenetti 2 integral format.
 Two-electron integral symmetry is turned off.
 Nuclear repulsion after empirical dispersion term =      998.4095918572 Hartrees.
 ------------------------------------------------------------------------------
 Polarizable Continuum Model (PCM)
 =================================
 Model                : PCM.
 Atomic radii         : UFF (Universal Force Field).
 Polarization charges : Total charges.
 Charge compensation  : None.
 Solution method      : On-the-fly selection.
 Cavity type          : Scaled VdW (van der Waals Surface) (Alpha=1.100).
 Cavity algorithm     : GePol (No added spheres)
                        Default sphere list used, NSphG=   30.
                        Lebedev-Laikov grids with approx.  5.0 points / Ang**2.
                        Smoothing algorithm: York/Karplus (Gamma=1.0000).
                        Polarization charges: spherical gaussians, with
                                              point-specific exponents (IZeta= 3).
                        Self-potential: point-specific (ISelfS= 7).
                        Self-field    : sphere-specific E.n sum rule (ISelfD= 2).
 Solvent              : Toluene, Eps=   2.374100 Eps(inf)=   2.238315
 ------------------------------------------------------------------------------
 One-electron integrals computed using PRISM.
   1 Symmetry operations used in ECPInt.
 ECPInt:  NShTT=   13861 NPrTT=   47301 LenC2=   13130 LenP2D=   31878.
 LDataN:  DoStor=T MaxTD1= 4 Len=   56
 Number of processors reduced to 100 by ecpmxn.
 NBasis=   450 RedAO= T EigKep=  1.40D-06  NBF=   450
 NBsUse=   445 1.00D-06 EigRej=  7.71D-07 NBFU=   445
 ExpMin= 3.15D-02 ExpMax= 6.29D+03 ExpMxC= 9.49D+02 IAcc=3 IRadAn=         5 AccDes= 0.00D+00
 Harris functional with IExCor= 4639 and IRadAn=       5 diagonalized for initial guess.
 HarFok:  IExCor= 4639 AccDes= 0.00D+00 IRadAn=         5 IDoV= 1 UseB2=F ITyADJ=14
 ICtDFT=  3500011 ScaDFX=  1.000000  1.000000  1.000000  1.000000
 FoFCou: FMM=F IPFlag=           0 FMFlag=      100000 FMFlg1=           0
         NFxFlg=           0 DoJE=T BraDBF=F KetDBF=T FulRan=T
         wScrn=  0.000000 ICntrl=       500 IOpCl=  0 I1Cent=   200000004 NGrid=           0
         NMat0=    1 NMatS0=      1 NMatT0=    0 NMatD0=    1 NMtDS0=    0 NMtDT0=    0
 Symmetry not used in FoFCou.
 Requested convergence on RMS density matrix=1.00D-08 within 300 cycles.
 Requested convergence on MAX density matrix=1.00D-06.
 Requested convergence on             energy=1.00D-06.
 No special actions if energy rises.
 Inv3:  Mode=1 IEnd=    15677388.
 Iteration    1 A*A^-1 deviation from unit magnitude is 6.22D-15 for   2281.
 Iteration    1 A*A^-1 deviation from orthogonality  is 3.38D-15 for   2278    691.
 Iteration    1 A^-1*A deviation from unit magnitude is 6.22D-15 for   2281.
 Iteration    1 A^-1*A deviation from orthogonality  is 2.23D-15 for   1111     97.
 Error on total polarization charges =  0.00888
 SCF Done:  E(RwB97XD) =  -621.499086691     A.U. after   15 cycles
            NFock= 15  Conv=0.72D-08     -V/T= 2.0044

 **********************************************************************

            Population analysis using the SCF Density.

 **********************************************************************

 Alpha  occ. eigenvalues --  -14.43811 -10.32597 -10.32541 -10.31100 -10.30495
 Alpha  occ. eigenvalues --  -10.30323 -10.29911 -10.29840 -10.29058 -10.28887
 Alpha  occ. eigenvalues --  -10.28881 -10.28779 -10.27526 -10.24385 -10.24376
 Alpha  occ. eigenvalues --   -6.84515  -1.06193  -0.98172  -0.93089  -0.90274
 Alpha  occ. eigenvalues --   -0.86275  -0.82875  -0.80565  -0.79653  -0.76812
 Alpha  occ. eigenvalues --   -0.74737  -0.70890  -0.68559  -0.67871  -0.61854
 Alpha  occ. eigenvalues --   -0.59423  -0.58191  -0.55030  -0.54924  -0.53417
 Alpha  occ. eigenvalues --   -0.52615  -0.51290  -0.49882  -0.49743  -0.49130
 Alpha  occ. eigenvalues --   -0.49017  -0.47716  -0.47643  -0.45931  -0.45662
 Alpha  occ. eigenvalues --   -0.44799  -0.44573  -0.43128  -0.39428  -0.38036
 Alpha  occ. eigenvalues --   -0.37690  -0.36008  -0.35035  -0.32068  -0.29907
 Alpha virt. eigenvalues --    0.01314   0.03478   0.03846   0.04495   0.04849
 Alpha virt. eigenvalues --    0.05727   0.05930   0.06005   0.06512   0.06836
 Alpha virt. eigenvalues --    0.07513   0.07554   0.07804   0.08089   0.09126
 Alpha virt. eigenvalues --    0.09804   0.09912   0.10354   0.10916   0.11344
 Alpha virt. eigenvalues --    0.11966   0.12527   0.12846   0.13423   0.14859
 Alpha virt. eigenvalues --    0.15118   0.15460   0.15813   0.15833   0.16206
 Alpha virt. eigenvalues --    0.16508   0.17035   0.17327   0.17413   0.17619
 Alpha virt. eigenvalues --    0.18188   0.18316   0.18408   0.19271   0.19422
 Alpha virt. eigenvalues --    0.19847   0.20039   0.20630   0.21282   0.21359
 Alpha virt. eigenvalues --    0.21828   0.21987   0.22343   0.22595   0.22815
 Alpha virt. eigenvalues --    0.23269   0.23678   0.24026   0.24204   0.24431
 Alpha virt. eigenvalues --    0.24517   0.24927   0.25487   0.25493   0.26225
 Alpha virt. eigenvalues --    0.26264   0.26725   0.26853   0.27009   0.27622
 Alpha virt. eigenvalues --    0.28338   0.29140   0.29404   0.29789   0.30096
 Alpha virt. eigenvalues --    0.30453   0.31367   0.31776   0.32266   0.32765
 Alpha virt. eigenvalues --    0.33253   0.33301   0.34196   0.34382   0.35082
 Alpha virt. eigenvalues --    0.35499   0.35751   0.36150   0.36660   0.37281
 Alpha virt. eigenvalues --    0.37362   0.37564   0.38023   0.38930   0.39010
 Alpha virt. eigenvalues --    0.39410   0.40212   0.40346   0.41120   0.41558
 Alpha virt. eigenvalues --    0.41677   0.42956   0.43347   0.44119   0.44773
 Alpha virt. eigenvalues --    0.44836   0.45088   0.47653   0.48438   0.48988
 Alpha virt. eigenvalues --    0.50025   0.50751   0.52079   0.52902   0.56435
 Alpha virt. eigenvalues --    0.56660   0.58884   0.59550   0.60671   0.61191
 Alpha virt. eigenvalues --    0.61750   0.62579   0.62853   0.63128   0.63550
 Alpha virt. eigenvalues --    0.64483   0.64717   0.65398   0.66443   0.67609
 Alpha virt. eigenvalues --    0.67868   0.69053   0.69679   0.70576   0.71042
 Alpha virt. eigenvalues --    0.71365   0.72140   0.72770   0.73393   0.74133
 Alpha virt. eigenvalues --    0.74320   0.75353   0.75710   0.76518   0.77081
 Alpha virt. eigenvalues --    0.77294   0.77645   0.78389   0.78819   0.80059
 Alpha virt. eigenvalues --    0.80607   0.81804   0.81965   0.82675   0.83522
 Alpha virt. eigenvalues --    0.85018   0.86011   0.86186   0.86257   0.86696
 Alpha virt. eigenvalues --    0.88251   0.88890   0.89266   0.89693   0.92055
 Alpha virt. eigenvalues --    0.92513   0.92840   0.93891   0.94770   0.95644
 Alpha virt. eigenvalues --    0.96651   0.98091   0.98696   0.99149   1.01050
 Alpha virt. eigenvalues --    1.02094   1.02517   1.02727   1.03936   1.04662
 Alpha virt. eigenvalues --    1.05040   1.05341   1.07907   1.09345   1.10194
 Alpha virt. eigenvalues --    1.11677   1.12110   1.12735   1.13284   1.13539
 Alpha virt. eigenvalues --    1.15812   1.16093   1.18137   1.19023   1.20011
 Alpha virt. eigenvalues --    1.20917   1.21399   1.22866   1.25445   1.28371
 Alpha virt. eigenvalues --    1.29139   1.30607   1.33184   1.35299   1.37962
 Alpha virt. eigenvalues --    1.39462   1.41462   1.43124   1.43551   1.45411
 Alpha virt. eigenvalues --    1.46518   1.47944   1.49335   1.54633   1.54999
 Alpha virt. eigenvalues --    1.57964   1.58198   1.58971   1.59511   1.60987
 Alpha virt. eigenvalues --    1.61744   1.61860   1.64831   1.65475   1.65900
 Alpha virt. eigenvalues --    1.66630   1.67835   1.69450   1.69668   1.70445
 Alpha virt. eigenvalues --    1.70596   1.71484   1.71727   1.73122   1.73190
 Alpha virt. eigenvalues --    1.76473   1.77051   1.78695   1.79035   1.81461
 Alpha virt. eigenvalues --    1.82181   1.82559   1.83387   1.84274   1.85108
 Alpha virt. eigenvalues --    1.86953   1.87594   1.87958   1.90490   1.91119
 Alpha virt. eigenvalues --    1.93910   1.94769   1.95128   1.96174   1.96990
 Alpha virt. eigenvalues --    1.98839   1.99440   1.99974   2.02193   2.02245
 Alpha virt. eigenvalues --    2.03998   2.04857   2.06061   2.06619   2.08111
 Alpha virt. eigenvalues --    2.09758   2.11817   2.13776   2.14369   2.15713
 Alpha virt. eigenvalues --    2.18501   2.18731   2.18976   2.20463   2.21211
 Alpha virt. eigenvalues --    2.23585   2.23935   2.26535   2.29300   2.30379
 Alpha virt. eigenvalues --    2.30994   2.33191   2.33300   2.40147   2.40677
 Alpha virt. eigenvalues --    2.41189   2.44235   2.46618   2.48398   2.49743
 Alpha virt. eigenvalues --    2.52361   2.54167   2.55483   2.56666   2.57297
 Alpha virt. eigenvalues --    2.58015   2.59368   2.60025   2.61319   2.63208
 Alpha virt. eigenvalues --    2.64529   2.66468   2.68967   2.69157   2.69329
 Alpha virt. eigenvalues --    2.70264   2.72282   2.74332   2.75007   2.75546
 Alpha virt. eigenvalues --    2.77105   2.78794   2.80086   2.80775   2.82510
 Alpha virt. eigenvalues --    2.82936   2.83476   2.83664   2.85200   2.85966
 Alpha virt. eigenvalues --    2.86481   2.88130   2.89148   2.90004   2.90711
 Alpha virt. eigenvalues --    2.90827   2.92321   2.94215   2.96513   2.96585
 Alpha virt. eigenvalues --    2.98052   2.98352   3.00906   3.04819   3.08957
 Alpha virt. eigenvalues --    3.09771   3.12214   3.13179   3.13449   3.15114
 Alpha virt. eigenvalues --    3.15722   3.18448   3.26398   3.30209   3.34085
 Alpha virt. eigenvalues --    3.37412   3.39198   3.43038   3.49181   3.53048
 Alpha virt. eigenvalues --    3.54024   3.56543   3.60266   3.65184   3.68224
 Alpha virt. eigenvalues --    3.69662   3.75564   3.79477   3.82826   3.85603
 Alpha virt. eigenvalues --    3.87230   3.87826   3.91796   3.92004   4.00406
 Alpha virt. eigenvalues --    4.01429   4.07853   4.10922   4.12595   4.13809
 Alpha virt. eigenvalues --    4.15627   4.26776   4.28537   4.39207   4.57445
 Alpha virt. eigenvalues --    4.67841   4.71373   4.95849   5.37039  14.87545
 Alpha virt. eigenvalues --   23.69902  23.89616  24.05892  24.07505  24.09211
 Alpha virt. eigenvalues --   24.11016  24.14586  24.16257  24.16976  24.21357
 Alpha virt. eigenvalues --   24.23443  24.25731  24.28794  24.33103  35.85805
          Condensed to atoms (all electrons):
               1          2          3          4          5          6
     1  C    8.466148   0.186898  -0.955897   1.957573  -0.678019  -2.157902
     2  C    0.186898   9.553563   0.216067  -2.584962   0.673942  -1.357931
     3  C   -0.955897   0.216067  10.105379  -1.964616  -0.556418   3.103921
     4  C    1.957573  -2.584962  -1.964616  10.976473  -0.480498  -1.003314
     5  C   -0.678019   0.673942  -0.556418  -0.480498   6.451774   0.280210
     6  C   -2.157902  -1.357931   3.103921  -1.003314   0.280210  11.161883
     7  H    0.024047   0.056335  -0.059416   0.405099  -0.087372  -0.044096
     8  H   -0.007051   0.025470   0.011188  -0.121121   0.465558  -0.028949
     9  H   -0.009734   0.022742   0.013190   0.013406  -0.052042   0.359165
    10  C    0.353900   0.401575  -0.868196   0.037618  -0.101657  -1.939489
    11  H   -0.022219  -0.024464   0.003179   0.003847   0.006360   0.031683
    12  H   -0.022067  -0.024873   0.003436   0.003738   0.006495   0.032518
    13  C   -0.339810   2.585657  -1.556428  -1.040083   0.140876  -1.459669
    14  C   -0.628297  -1.935158  -1.459969   0.327007   0.032262  -1.144058
    15  C   -0.086244  -0.060168  -0.125277  -0.025047  -0.011277   0.011425
    16  C    0.046323  -1.283006  -0.193967  -0.194852   0.083393   0.323133
    17  C   -0.149097  -0.357672  -0.079333   0.033009   0.011206  -0.102483
    18  H   -0.001079   0.049651   0.007722   0.001569  -0.000781   0.000427
    19  H   -0.004384   0.006545   0.004962   0.001127  -0.002315   0.002027
    20  H   -0.001904  -0.019818  -0.004921  -0.000662   0.000438  -0.001177
    21  N    0.026881  -0.373612   0.120125   0.018078  -0.001220   0.026480
    22  B    0.117473  -0.190023   0.365618   0.140487  -0.083934   0.141670
    23  C   -0.077935   0.123635  -0.181421  -0.100791   0.058168   0.011115
    24  H   -0.001793   0.008537   0.022263  -0.013737   0.000342  -0.001990
    25  H   -0.002653   0.015108  -0.010343  -0.025897   0.011516  -0.008718
    26  H   -0.007035   0.006117  -0.010730   0.009441   0.001172   0.000955
    27  C   -0.077469   0.121992  -0.181071  -0.100770   0.057444   0.010699
    28  H   -0.002730   0.015379  -0.008580  -0.027526   0.011157  -0.008354
    29  H   -0.001677   0.007880   0.021880  -0.012745   0.000418  -0.002081
    30  H   -0.006212   0.004477  -0.010776   0.012787   0.001229   0.001348
               7          8          9         10         11         12
     1  C    0.024047  -0.007051  -0.009734   0.353900  -0.022219  -0.022067
     2  C    0.056335   0.025470   0.022742   0.401575  -0.024464  -0.024873
     3  C   -0.059416   0.011188   0.013190  -0.868196   0.003179   0.003436
     4  C    0.405099  -0.121121   0.013406   0.037618   0.003847   0.003738
     5  C   -0.087372   0.465558  -0.052042  -0.101657   0.006360   0.006495
     6  C   -0.044096  -0.028949   0.359165  -1.939489   0.031683   0.032518
     7  H    0.496291  -0.013461   0.002952   0.000223  -0.000172  -0.000175
     8  H   -0.013461   0.469873  -0.010242  -0.002636   0.000453   0.000463
     9  H    0.002952  -0.010242   0.459664   0.011986  -0.000881  -0.000862
    10  C    0.000223  -0.002636   0.011986   7.533386   0.329639   0.329019
    11  H   -0.000172   0.000453  -0.000881   0.329639   0.499497  -0.051435
    12  H   -0.000175   0.000463  -0.000862   0.329019  -0.051435   0.499312
    13  C    0.019968  -0.001169  -0.002484   0.853964  -0.048559  -0.049006
    14  C    0.009530  -0.005993  -0.015944   0.396118   0.007905   0.007439
    15  C   -0.000566   0.000148   0.001946  -0.064312  -0.000052  -0.000162
    16  C   -0.001280   0.000065  -0.007170  -0.845745   0.039638   0.040257
    17  C    0.000186  -0.000064  -0.003292   0.121176   0.002090   0.002379
    18  H    0.000017   0.000003   0.000077  -0.005142  -0.000076  -0.000077
    19  H    0.000049  -0.000058   0.000489   0.000306  -0.000541  -0.000570
    20  H   -0.000001   0.000003  -0.000080   0.005283   0.000222   0.000228
    21  N   -0.001694   0.000286  -0.000137  -0.043446   0.001472   0.001446
    22  B   -0.036602  -0.008235   0.002522  -0.077626  -0.001779  -0.001823
    23  C   -0.006342   0.001636  -0.000150   0.011991  -0.000978   0.001401
    24  H   -0.000150   0.000063  -0.000026   0.000802  -0.000129   0.000206
    25  H   -0.003439   0.000488  -0.000247   0.001690  -0.000065   0.000159
    26  H    0.001760   0.000055   0.000030   0.000944  -0.000133   0.000235
    27  C   -0.006408   0.001625  -0.000169   0.011957   0.001397  -0.000979
    28  H   -0.003467   0.000472  -0.000240   0.001696   0.000158  -0.000066
    29  H   -0.000108   0.000062  -0.000028   0.000816   0.000206  -0.000129
    30  H    0.001763   0.000051   0.000029   0.000833   0.000229  -0.000133
              13         14         15         16         17         18
     1  C   -0.339810  -0.628297  -0.086244   0.046323  -0.149097  -0.001079
     2  C    2.585657  -1.935158  -0.060168  -1.283006  -0.357672   0.049651
     3  C   -1.556428  -1.459969  -0.125277  -0.193967  -0.079333   0.007722
     4  C   -1.040083   0.327007  -0.025047  -0.194852   0.033009   0.001569
     5  C    0.140876   0.032262  -0.011277   0.083393   0.011206  -0.000781
     6  C   -1.459669  -1.144058   0.011425   0.323133  -0.102483   0.000427
     7  H    0.019968   0.009530  -0.000566  -0.001280   0.000186   0.000017
     8  H   -0.001169  -0.005993   0.000148   0.000065  -0.000064   0.000003
     9  H   -0.002484  -0.015944   0.001946  -0.007170  -0.003292   0.000077
    10  C    0.853964   0.396118  -0.064312  -0.845745   0.121176  -0.005142
    11  H   -0.048559   0.007905  -0.000052   0.039638   0.002090  -0.000076
    12  H   -0.049006   0.007439  -0.000162   0.040257   0.002379  -0.000077
    13  C    9.428651   0.354428  -0.706869  -1.561977   0.272785   0.045122
    14  C    0.354428   9.847257   0.086056   0.244817  -0.050294  -0.029598
    15  C   -0.706869   0.086056   6.592735   0.193900  -0.601412   0.439211
    16  C   -1.561977   0.244817   0.193900   7.907438   0.614341  -0.033835
    17  C    0.272785  -0.050294  -0.601412   0.614341   6.450184  -0.089290
    18  H    0.045122  -0.029598   0.439211  -0.033835  -0.089290   0.465003
    19  H    0.038155  -0.020831  -0.001401   0.317100  -0.011649   0.000830
    20  H   -0.004953   0.012054  -0.069756   0.004226   0.396746  -0.004215
    21  N    0.086235   0.072515   0.144138  -0.063615   0.059888  -0.090134
    22  B   -0.200361   0.019621  -0.034385  -0.009144  -0.035942  -0.005032
    23  C    0.027361  -0.042768   0.020687   0.005442   0.002239   0.001555
    24  H    0.012632   0.002521  -0.001133   0.000915   0.002018  -0.000228
    25  H    0.019080   0.004491  -0.002562   0.000107   0.001358  -0.000312
    26  H   -0.006855  -0.000062   0.002766   0.001754   0.002160   0.000569
    27  C    0.027806  -0.042053   0.020636   0.005613   0.002384   0.001536
    28  H    0.018856   0.004187  -0.002695   0.000079   0.001400  -0.000325
    29  H    0.012720   0.002803  -0.001141   0.000911   0.002075  -0.000249
    30  H   -0.009155  -0.000472   0.002599   0.001528   0.002389   0.000555
              19         20         21         22         23         24
     1  C   -0.004384  -0.001904   0.026881   0.117473  -0.077935  -0.001793
     2  C    0.006545  -0.019818  -0.373612  -0.190023   0.123635   0.008537
     3  C    0.004962  -0.004921   0.120125   0.365618  -0.181421   0.022263
     4  C    0.001127  -0.000662   0.018078   0.140487  -0.100791  -0.013737
     5  C   -0.002315   0.000438  -0.001220  -0.083934   0.058168   0.000342
     6  C    0.002027  -0.001177   0.026480   0.141670   0.011115  -0.001990
     7  H    0.000049  -0.000001  -0.001694  -0.036602  -0.006342  -0.000150
     8  H   -0.000058   0.000003   0.000286  -0.008235   0.001636   0.000063
     9  H    0.000489  -0.000080  -0.000137   0.002522  -0.000150  -0.000026
    10  C    0.000306   0.005283  -0.043446  -0.077626   0.011991   0.000802
    11  H   -0.000541   0.000222   0.001472  -0.001779  -0.000978  -0.000129
    12  H   -0.000570   0.000228   0.001446  -0.001823   0.001401   0.000206
    13  C    0.038155  -0.004953   0.086235  -0.200361   0.027361   0.012632
    14  C   -0.020831   0.012054   0.072515   0.019621  -0.042768   0.002521
    15  C   -0.001401  -0.069756   0.144138  -0.034385   0.020687  -0.001133
    16  C    0.317100   0.004226  -0.063615  -0.009144   0.005442   0.000915
    17  C   -0.011649   0.396746   0.059888  -0.035942   0.002239   0.002018
    18  H    0.000830  -0.004215  -0.090134  -0.005032   0.001555  -0.000228
    19  H    0.436450  -0.005394  -0.002332   0.001319  -0.000020  -0.000008
    20  H   -0.005394   0.440982   0.013704  -0.000632   0.000069   0.000034
    21  N   -0.002332   0.013704   6.865102   0.083072  -0.020155  -0.005901
    22  B    0.001319  -0.000632   0.083072   5.281464   0.192168  -0.115882
    23  C   -0.000020   0.000069  -0.020155   0.192168   5.436830   0.420662
    24  H   -0.000008   0.000034  -0.005901  -0.115882   0.420662   0.549639
    25  H   -0.000039   0.000041   0.001786  -0.070490   0.394385  -0.020767
    26  H   -0.000019  -0.000048  -0.008753  -0.179220   0.456585  -0.007726
    27  C   -0.000016   0.000069  -0.020129   0.194453  -0.070505  -0.002100
    28  H   -0.000038   0.000041   0.001938  -0.070126  -0.019825   0.000409
    29  H   -0.000009   0.000037  -0.006148  -0.115427  -0.002074  -0.004346
    30  H   -0.000019  -0.000050  -0.008714  -0.178936   0.007412  -0.000736
              25         26         27         28         29         30
     1  C   -0.002653  -0.007035  -0.077469  -0.002730  -0.001677  -0.006212
     2  C    0.015108   0.006117   0.121992   0.015379   0.007880   0.004477
     3  C   -0.010343  -0.010730  -0.181071  -0.008580   0.021880  -0.010776
     4  C   -0.025897   0.009441  -0.100770  -0.027526  -0.012745   0.012787
     5  C    0.011516   0.001172   0.057444   0.011157   0.000418   0.001229
     6  C   -0.008718   0.000955   0.010699  -0.008354  -0.002081   0.001348
     7  H   -0.003439   0.001760  -0.006408  -0.003467  -0.000108   0.001763
     8  H    0.000488   0.000055   0.001625   0.000472   0.000062   0.000051
     9  H   -0.000247   0.000030  -0.000169  -0.000240  -0.000028   0.000029
    10  C    0.001690   0.000944   0.011957   0.001696   0.000816   0.000833
    11  H   -0.000065  -0.000133   0.001397   0.000158   0.000206   0.000229
    12  H    0.000159   0.000235  -0.000979  -0.000066  -0.000129  -0.000133
    13  C    0.019080  -0.006855   0.027806   0.018856   0.012720  -0.009155
    14  C    0.004491  -0.000062  -0.042053   0.004187   0.002803  -0.000472
    15  C   -0.002562   0.002766   0.020636  -0.002695  -0.001141   0.002599
    16  C    0.000107   0.001754   0.005613   0.000079   0.000911   0.001528
    17  C    0.001358   0.002160   0.002384   0.001400   0.002075   0.002389
    18  H   -0.000312   0.000569   0.001536  -0.000325  -0.000249   0.000555
    19  H   -0.000039  -0.000019  -0.000016  -0.000038  -0.000009  -0.000019
    20  H    0.000041  -0.000048   0.000069   0.000041   0.000037  -0.000050
    21  N    0.001786  -0.008753  -0.020129   0.001938  -0.006148  -0.008714
    22  B   -0.070490  -0.179220   0.194453  -0.070126  -0.115427  -0.178936
    23  C    0.394385   0.456585  -0.070505  -0.019825  -0.002074   0.007412
    24  H   -0.020767  -0.007726  -0.002100   0.000409  -0.004346  -0.000736
    25  H    0.554511  -0.011774  -0.019539  -0.009022   0.000416  -0.004832
    26  H   -0.011774   0.555090   0.007039  -0.004804  -0.000797  -0.005188
    27  C   -0.019539   0.007039   5.437770   0.394385   0.420417   0.456152
    28  H   -0.009022  -0.004804   0.394385   0.554793  -0.021035  -0.011689
    29  H    0.000416  -0.000797   0.420417  -0.021035   0.549669  -0.007820
    30  H   -0.004832  -0.005188   0.456152  -0.011689  -0.007820   0.554791
 Mulliken charges:
               1
     1  C    0.061963
     2  C    0.130117
     3  C    0.228429
     4  C   -0.244638
     5  C   -0.238428
     6  C   -0.238449
     7  H    0.246531
     8  H    0.221016
     9  H    0.215533
    10  C   -0.456677
    11  H    0.223508
    12  H    0.223626
    13  C   -0.956915
    14  C   -0.055512
    15  C    0.278213
    16  C    0.363614
    17  C   -0.499484
    18  H    0.246526
    19  H    0.240284
    20  H    0.239435
    21  N    0.122845
    22  B   -0.124268
    23  C   -0.650376
    24  H    0.155606
    25  H    0.185562
    26  H    0.196472
    27  C   -0.652166
    28  H    0.185570
    29  H    0.155504
    30  H    0.196560
 Sum of Mulliken charges =  -0.00000
 Mulliken charges with hydrogens summed into heavy atoms:
               1
     1  C    0.061963
     2  C    0.130117
     3  C    0.228429
     4  C    0.001893
     5  C   -0.017413
     6  C   -0.022916
    10  C   -0.009542
    13  C   -0.956915
    14  C   -0.055512
    15  C    0.524739
    16  C    0.603899
    17  C   -0.260049
    21  N    0.122845
    22  B   -0.124268
    23  C   -0.112736
    27  C   -0.114532
 Electronic spatial extent (au):  <R**2>=           5581.7074
 Charge=              0.0000 electrons
 Dipole moment (field-independent basis, Debye):
    X=             -1.4683    Y=             -1.6332    Z=             -1.7923  Tot=              2.8347
 Quadrupole moment (field-independent basis, Debye-Ang):
   XX=            -97.7550   YY=            -83.3519   ZZ=            -95.0441
   XY=             -6.8552   XZ=              0.0567   YZ=              5.2183
 Traceless Quadrupole moment (field-independent basis, Debye-Ang):
   XX=             -5.7046   YY=              8.6984   ZZ=             -2.9938
   XY=             -6.8552   XZ=              0.0567   YZ=              5.2183
 Octapole moment (field-independent basis, Debye-Ang**2):
  XXX=           -664.7794  YYY=           -113.0198  ZZZ=           -155.4285  XYY=           -191.8553
  XXY=            -64.4871  XXZ=            -46.9428  XZZ=           -222.7040  YZZ=            -34.7318
  YYZ=            -43.7611  XYZ=             10.0496
 Hexadecapole moment (field-independent basis, Debye-Ang**3):
 XXXX=          -4494.8714 YYYY=          -2146.0428 ZZZZ=          -1240.8479 XXXY=           -216.7668
 XXXZ=           -601.6239 YYYX=           -149.2436 YYYZ=           -290.5820 ZZZX=           -650.4506
 ZZZY=           -377.2065 XXYY=          -1022.0716 XXZZ=           -960.4541 YYZZ=           -567.5852
 XXYZ=           -132.0764 YYXZ=           -187.6940 ZZXY=             -3.1118
 N-N= 9.984095918572D+02 E-N=-3.439489786175D+03  KE= 6.187773017155D+02
 Breneman (CHELPG) radii used.
 Generate Potential Derived Charges using the Breneman model, NDens= 1.
 Grid spacing= 0.300 Box extension= 2.800
 NStep X,Y,Z=   43     46     41   Total possible points=       81098
 Number of Points to Fit=   18881

 **********************************************************************

            Electrostatic Properties Using The SCF Density.

 **********************************************************************

       Atomic Center    1 is at   0.673552  0.721495 -0.456768
       Atomic Center    2 is at   1.818430  0.736988  0.343420
       Atomic Center    3 is at   2.200871  1.823349  1.129644
       Atomic Center    4 is at   1.353581  2.935085  1.076090
       Atomic Center    5 is at   0.204608  2.939550  0.281978
       Atomic Center    6 is at  -0.149757  1.835927 -0.492910
       Atomic Center    7 is at   1.583774  3.820940  1.661028
       Atomic Center    8 is at  -0.425376  3.822736  0.269213
       Atomic Center    9 is at  -1.046158  1.857015 -1.103561
       Atomic Center   10 is at   0.556218 -0.608335 -1.174298
       Atomic Center   11 is at   0.563361 -0.485066 -2.261914
       Atomic Center   12 is at  -0.370314 -1.129826 -0.914011
       Atomic Center   13 is at   2.497326 -0.546272  0.199733
       Atomic Center   14 is at   1.774798 -1.355379 -0.687407
       Atomic Center   15 is at   4.079393 -2.116420  0.546219
       Atomic Center   16 is at   2.260895 -2.619727 -0.954311
       Atomic Center   17 is at   3.443790 -3.002359 -0.317329
       Atomic Center   18 is at   4.999066 -2.406311  1.045269
       Atomic Center   19 is at   1.751368 -3.297784 -1.630975
       Atomic Center   20 is at   3.872503 -3.982353 -0.487942
       Atomic Center   21 is at   3.622373 -0.888459  0.815874
       Atomic Center   22 is at   3.517046  1.739344  2.002910
       Atomic Center   23 is at   3.389580  1.301827  3.506430
       Atomic Center   24 is at   4.336892  1.009419  3.965928
       Atomic Center   25 is at   3.011673  2.175392  4.060179
       Atomic Center   26 is at   2.651180  0.508822  3.653402
       Atomic Center   27 is at   4.853904  2.299702  1.397089
       Atomic Center   28 is at   4.804199  3.396833  1.476416
       Atomic Center   29 is at   5.752375  1.974636  1.927323
       Atomic Center   30 is at   4.957969  2.078527  0.331263
   18881 points will be used for fitting atomic charges
 Fitting point charges to electrostatic potential
 Charges from ESP fit, RMS=   0.00401 RRMS=   0.31425:
 ESP charges:
               1
     1  C    0.081999
     2  C   -0.176399
     3  C   -0.012074
     4  C   -0.233031
     5  C   -0.016308
     6  C   -0.227407
     7  H    0.109290
     8  H    0.085632
     9  H    0.120402
    10  C    0.034907
    11  H    0.040798
    12  H    0.041046
    13  C    0.423610
    14  C   -0.163628
    15  C    0.239894
    16  C    0.023210
    17  C   -0.285633
    18  H    0.054012
    19  H    0.104238
    20  H    0.130291
    21  N   -0.512855
    22  B    0.601780
    23  C   -0.488232
    24  H    0.099417
    25  H    0.098345
    26  H    0.061288
    27  C   -0.513120
    28  H    0.104020
    29  H    0.105915
    30  H    0.068592
 Sum of ESP charges =  -0.00000
 ESP charges with hydrogens summed into heavy atoms:
               1
     1  C    0.081999
     2  C   -0.176399
     3  C   -0.012074
     4  C   -0.123740
     5  C    0.069324
     6  C   -0.107005
    10  C    0.116750
    13  C    0.423610
    14  C   -0.163628
    15  C    0.293905
    16  C    0.127448
    17  C   -0.155343
    21  N   -0.512855
    22  B    0.601780
    23  C   -0.229182
    27  C   -0.234593
 Charge=  -0.00000 Dipole=    -1.5119    -1.6188    -1.8182 Tot=     2.8657
 -----------------------------------------------------------------

              Electrostatic Properties (Atomic Units)

 -----------------------------------------------------------------
    Center     Electric         -------- Electric Field --------
               Potential          X             Y             Z
 -----------------------------------------------------------------
    1 Atom    -14.766089
    2 Atom    -14.780219
    3 Atom    -14.794570
    4 Atom    -14.778691
    5 Atom    -14.775471
    6 Atom    -14.774932
    7 Atom     -1.113405
    8 Atom     -1.108524
    9 Atom     -1.101787
   10 Atom    -14.749734
   11 Atom     -1.090076
   12 Atom     -1.090068
   13 Atom    -14.742536
   14 Atom    -14.757737
   15 Atom    -14.739638
   16 Atom    -14.749056
   17 Atom    -14.762576
   18 Atom     -1.104038
   19 Atom     -1.081157
   20 Atom     -1.089725
   21 Atom    -18.404588
   22 Atom    -11.474254
   23 Atom    -14.819560
   24 Atom     -1.139300
   25 Atom     -1.116229
   26 Atom     -1.135940
   27 Atom    -14.819693
   28 Atom     -1.116469
   29 Atom     -1.139430
   30 Atom     -1.136084
 -----------------------------------------------------------------
 Unable to Open any file for archive entry.
 1\1\GINC-IRENE6008\SP\RwB97XD\GenECP\C14H14B1N1\PENASFRA\10-Apr-2024\0
 \\# wb97xd/genecp scrf=(solvent=toluene,pcm) nosymm pop=(chelpg) scfcy
 c=300\\me_indenoPy_chelpg\\0,1\C,0,0.673552,0.721495,-0.456768\C,0,1.8
 1843,0.736988,0.34342\C,0,2.200871,1.823349,1.129644\C,0,1.353581,2.93
 5085,1.07609\C,0,0.204608,2.93955,0.281978\C,0,-0.149757,1.835927,-0.4
 9291\H,0,1.583774,3.82094,1.661028\H,0,-0.425376,3.822736,0.269213\H,0
 ,-1.046158,1.857015,-1.103561\C,0,0.556218,-0.608335,-1.174298\H,0,0.5
 63361,-0.485066,-2.261914\H,0,-0.370314,-1.129826,-0.914011\C,0,2.4973
 26,-0.546272,0.199733\C,0,1.774798,-1.355379,-0.687407\C,0,4.079393,-2
 .11642,0.546219\C,0,2.260895,-2.619727,-0.954311\C,0,3.44379,-3.002359
 ,-0.317329\H,0,4.999066,-2.406311,1.045269\H,0,1.751368,-3.297784,-1.6
 30975\H,0,3.872503,-3.982353,-0.487942\N,0,3.622373,-0.888459,0.815874
 \B,0,3.517046,1.739344,2.00291\C,0,3.38958,1.301827,3.50643\H,0,4.3368
 92,1.009419,3.965928\H,0,3.011673,2.175392,4.060179\H,0,2.65118,0.5088
 22,3.653402\C,0,4.853904,2.299702,1.397089\H,0,4.804199,3.396833,1.476
 416\H,0,5.752375,1.974636,1.927323\H,0,4.957969,2.078527,0.331263\\Ver
 sion=AS64L-G16RevC.02\HF=-621.4990867\RMSD=7.153e-09\Dipole=-0.577661,
 -0.6425632,-0.7051319\Quadrupole=-4.2412654,6.4670493,-2.2257838,-5.09
 66516,0.042152,3.8796624\PG=C01 [X(C14H14B1N1)]\\@
 The archive entry for this job was punched.


 IT'S WHAT YOU LEARN AFTER YOU KNOW IT ALL
 THAT COUNTS.
 Job cpu time:       0 days  1 hours  0 minutes 40.8 seconds.
 Elapsed time:       0 days  0 hours  0 minutes 38.4 seconds.
 File lengths (MBytes):  RWF=    196 Int=      0 D2E=      0 Chk=     14 Scr=      1
 Normal termination of Gaussian 16 at Wed Apr 10 14:39:13 2024.
