 Entering Gaussian System, Link 0=/ccc/products/gaussian-16-C.02/system/default/g16/g16
 Input=me_mequinolinamine_chelpg.gjf
 Output=me_mequinolinamine_chelpg.log
 Initial command:
 /ccc/products/gaussian-16-C.02/system/default/g16/l1.exe "/ccc/scratch/cont003/gen7343/penasfra/flp/b-n_flp/me_mequinolinamine/Reactant/Gau-3809888.inp" -scrdir="/ccc/scratch/cont003/gen7343/penasfra/flp/b-n_flp/me_mequinolinamine/Reactant/"
 Entering Link 1 = /ccc/products/gaussian-16-C.02/system/default/g16/l1.exe PID=   3809937.
  
 Copyright (c) 1988-2021, Gaussian, Inc.  All Rights Reserved.
  
 This is part of the Gaussian(R) 16 program.  It is based on
 the Gaussian(R) 09 system (copyright 2009, Gaussian, Inc.),
 the Gaussian(R) 03 system (copyright 2003, Gaussian, Inc.),
 the Gaussian(R) 98 system (copyright 1998, Gaussian, Inc.),
 the Gaussian(R) 94 system (copyright 1995, Gaussian, Inc.),
 the Gaussian 92(TM) system (copyright 1992, Gaussian, Inc.),
 the Gaussian 90(TM) system (copyright 1990, Gaussian, Inc.),
 the Gaussian 88(TM) system (copyright 1988, Gaussian, Inc.),
 the Gaussian 86(TM) system (copyright 1986, Carnegie Mellon
 University), and the Gaussian 82(TM) system (copyright 1983,
 Carnegie Mellon University). Gaussian is a federally registered
 trademark of Gaussian, Inc.
  
 This software contains proprietary and confidential information,
 including trade secrets, belonging to Gaussian, Inc.
  
 This software is provided under written license and may be
 used, copied, transmitted, or stored only in accord with that
 written license.
  
 The following legend is applicable only to US Government
 contracts under FAR:
  
                    RESTRICTED RIGHTS LEGEND
  
 Use, reproduction and disclosure by the US Government is
 subject to restrictions as set forth in subparagraphs (a)
 and (c) of the Commercial Computer Software - Restricted
 Rights clause in FAR 52.227-19.
  
 Gaussian, Inc.
 340 Quinnipiac St., Bldg. 40, Wallingford CT 06492
  
  
 ---------------------------------------------------------------
 Warning -- This program may not be used in any manner that
 competes with the business of Gaussian, Inc. or will provide
 assistance to any competitor of Gaussian, Inc.  The licensee
 of this program is prohibited from giving any competitor of
 Gaussian, Inc. access to this program.  By using this program,
 the user acknowledges that Gaussian, Inc. is engaged in the
 business of creating and licensing software in the field of
 computational chemistry and represents and warrants to the
 licensee that it is not a competitor of Gaussian, Inc. and that
 it will not use this program in any manner prohibited above.
 ---------------------------------------------------------------
  

 Cite this work as:
 Gaussian 16, Revision C.02,
 M. J. Frisch, G. W. Trucks, H. B. Schlegel, G. E. Scuseria, 
 M. A. Robb, J. R. Cheeseman, G. Scalmani, V. Barone, 
 G. A. Petersson, H. Nakatsuji, X. Li, M. Caricato, A. V. Marenich, 
 J. Bloino, B. G. Janesko, R. Gomperts, B. Mennucci, H. P. Hratchian, 
 J. V. Ortiz, A. F. Izmaylov, J. L. Sonnenberg, D. Williams-Young, 
 F. Ding, F. Lipparini, F. Egidi, J. Goings, B. Peng, A. Petrone, 
 T. Henderson, D. Ranasinghe, V. G. Zakrzewski, J. Gao, N. Rega, 
 G. Zheng, W. Liang, M. Hada, M. Ehara, K. Toyota, R. Fukuda, 
 J. Hasegawa, M. Ishida, T. Nakajima, Y. Honda, O. Kitao, H. Nakai, 
 T. Vreven, K. Throssell, J. A. Montgomery, Jr., J. E. Peralta, 
 F. Ogliaro, M. J. Bearpark, J. J. Heyd, E. N. Brothers, K. N. Kudin, 
 V. N. Staroverov, T. A. Keith, R. Kobayashi, J. Normand, 
 K. Raghavachari, A. P. Rendell, J. C. Burant, S. S. Iyengar, 
 J. Tomasi, M. Cossi, J. M. Millam, M. Klene, C. Adamo, R. Cammi, 
 J. W. Ochterski, R. L. Martin, K. Morokuma, O. Farkas, 
 J. B. Foresman, and D. J. Fox, Gaussian, Inc., Wallingford CT, 2019.
 
 ******************************************
 Gaussian 16:  AS64L-G16RevC.02  7-Dec-2021
                 9-Apr-2024 
 ******************************************
 %nprocshared=128
 Will use up to  128 processors via shared memory.
 %mem=30GB
 %chk=me_mequinolinamine_chelpg.chk
 ----------------------------------------------------------------------
 # wb97xd/genecp scrf=(solvent=toluene,pcm) nosymm pop=(chelpg) scfcyc=
 300
 ----------------------------------------------------------------------
 1/38=1,172=1/1;
 2/12=2,15=1,17=6,18=5,40=1/2;
 3/5=7,11=2,16=1,17=8,25=1,30=1,70=2201,72=13,74=-58/1,2,3;
 4//1;
 5/5=2,7=300,38=5,53=13/2;
 6/7=2,8=2,9=2,10=2,15=8,20=3,28=1/1,2;
 99/5=1,9=1/99;
 -------------------------
 me_mequinolinamine_chelpg
 -------------------------
 Symbolic Z-matrix:
 Charge =  0 Multiplicity = 1
 C                    -3.98783   1.07381  -0.22112 
 C                    -2.68333   0.63074  -0.21624 
 C                    -1.63989   1.58617  -0.02257 
 C                    -1.97778   2.95066   0.18376 
 C                    -3.32992   3.34981   0.20888 
 C                    -4.34283   2.43216   0.01369 
 H                    -4.78188   0.35614  -0.39627 
 C                    -0.91127   3.86994   0.3488 
 H                    -3.56687   4.39648   0.37857 
 C                     0.37762   3.42037   0.29747 
 C                     0.6083    2.04348   0.07532 
 H                    -1.13209   4.92059   0.50946 
 H                     1.2168    4.09506   0.4182 
 H                     1.62841   1.67026   0.02513 
 N                    -0.34687   1.16106  -0.08166 
 B                    -2.4164   -0.91753  -0.34493 
 C                    -1.4137   -1.66616   0.60231 
 H                    -0.48355  -1.79256   0.03103 
 H                    -1.1478   -1.11941   1.5088 
 H                    -1.76186  -2.67275   0.85868 
 C                    -3.25802  -1.75645  -1.38067 
 H                    -4.14682  -2.12662  -0.84659 
 H                    -3.61653  -1.19074  -2.24417 
 H                    -2.7274   -2.64938  -1.72464 
 N                    -5.67078   2.81634   0.07087 
 H                    -5.81944   3.80859  -0.01143 
 C                    -6.73329   1.99462  -0.47147 
 H                    -6.8627    1.08276   0.11786 
 H                    -7.66634   2.55513  -0.41389 
 H                    -6.56314   1.70976  -1.51843 
 
                          Input orientation:                          
 ---------------------------------------------------------------------
 Center     Atomic      Atomic             Coordinates (Angstroms)
 Number     Number       Type             X           Y           Z
 ---------------------------------------------------------------------
      1          6           0       -3.987825    1.073813   -0.221124
      2          6           0       -2.683334    0.630739   -0.216242
      3          6           0       -1.639892    1.586165   -0.022571
      4          6           0       -1.977777    2.950656    0.183757
      5          6           0       -3.329917    3.349815    0.208876
      6          6           0       -4.342833    2.432160    0.013688
      7          1           0       -4.781883    0.356140   -0.396268
      8          6           0       -0.911268    3.869942    0.348801
      9          1           0       -3.566872    4.396484    0.378574
     10          6           0        0.377621    3.420368    0.297468
     11          6           0        0.608301    2.043478    0.075316
     12          1           0       -1.132089    4.920592    0.509457
     13          1           0        1.216800    4.095064    0.418203
     14          1           0        1.628405    1.670258    0.025132
     15          7           0       -0.346867    1.161059   -0.081664
     16          5           0       -2.416404   -0.917525   -0.344925
     17          6           0       -1.413701   -1.666161    0.602313
     18          1           0       -0.483547   -1.792557    0.031029
     19          1           0       -1.147801   -1.119410    1.508799
     20          1           0       -1.761862   -2.672751    0.858683
     21          6           0       -3.258020   -1.756446   -1.380669
     22          1           0       -4.146824   -2.126618   -0.846594
     23          1           0       -3.616534   -1.190737   -2.244174
     24          1           0       -2.727399   -2.649382   -1.724638
     25          7           0       -5.670782    2.816343    0.070869
     26          1           0       -5.819445    3.808590   -0.011429
     27          6           0       -6.733289    1.994624   -0.471466
     28          1           0       -6.862701    1.082762    0.117859
     29          1           0       -7.666343    2.555125   -0.413893
     30          1           0       -6.563139    1.709757   -1.518434
 ---------------------------------------------------------------------
                    Distance matrix (angstroms):
                    1          2          3          4          5
     1  C    0.000000
     2  C    1.377692   0.000000
     3  C    2.411372   1.427977   0.000000
     4  C    2.779705   2.457605   1.420765   0.000000
     5  C    2.407889   2.827042   2.453612   1.410050   0.000000
     6  C    1.423472   2.460066   2.832475   2.427190   1.380648
     7  H    1.084554   2.124081   3.394808   3.864059   3.381789
     8  C    4.196231   3.735228   2.425788   1.417663   2.477897
     9  H    3.402496   3.913474   3.431044   2.157219   1.086490
    10  C    4.983209   4.173173   2.745375   2.404467   3.709267
    11  C    4.706644   3.593842   2.296321   2.742723   4.151375
    12  H    4.846306   4.619073   3.414575   2.168390   2.718113
    13  H    6.051844   5.255008   3.827472   3.401464   4.612142
    14  H    5.653179   4.441841   3.269727   3.830030   5.238285
    15  N    3.644672   2.399673   1.362395   2.435770   3.711287
    16  B    2.539708   1.576367   2.641088   3.928705   4.399022
    17  C    3.848587   2.749136   3.319528   4.669943   5.383929
    18  H    4.534272   3.282159   3.571522   4.975351   5.880259
    19  H    3.983541   2.897697   3.147600   4.360050   5.140564
    20  H    4.489726   3.594109   4.350845   5.667879   6.257184
    21  C    3.144444   2.717500   3.954215   5.122818   5.348432
    22  H    3.264851   3.184676   4.555050   5.616502   5.636725
    23  H    3.059212   2.881171   4.068638   5.072624   5.168773
    24  H    4.208492   3.610595   4.692501   5.963584   6.331814
    25  N    2.440085   3.712700   4.215465   3.697170   2.404847
    26  H    3.298152   4.469438   4.733705   3.941137   2.541015
    27  C    2.906568   4.281058   5.129429   4.894712   3.725902
    28  H    2.894806   4.216996   5.248892   5.230282   4.198616
    29  H    3.970257   5.345344   6.116382   5.733534   4.452411
    30  H    2.952910   4.232360   5.146964   5.046071   4.015858
                    6          7          8          9         10
     6  C    0.000000
     7  H    2.161177   0.000000
     8  C    3.735660   5.280492   0.000000
     9  H    2.143321   4.289640   2.707465   0.000000
    10  C    4.831125   6.040798   1.366011   4.064284   0.000000
    11  C    4.966749   5.667767   2.391622   4.802153   1.413645
    12  H    4.092305   5.914014   1.085559   2.493990   2.138887
    13  H    5.817078   7.115273   2.141067   4.793323   1.083519
    14  H    6.019660   6.557155   3.375398   5.877766   2.168297
    15  N    4.194345   4.518433   2.800338   4.587835   2.402728
    16  B    3.880737   2.687071   5.066215   5.485045   5.199669
    17  C    5.071738   4.053581   5.564633   6.437536   5.401346
    18  H    5.722117   4.824435   5.687514   6.923287   5.290292
    19  H    5.005720   4.360399   5.127882   6.128164   4.940022
    20  H    5.782348   4.457534   6.617426   7.311816   6.482164
    21  C    4.545929   2.784641   6.336762   6.406939   6.544726
    22  H    4.643378   2.601957   6.917841   6.662450   7.249037
    23  H    4.330223   2.676868   6.297020   6.172383   6.608745
    24  H    5.608340   3.875388   7.078069   7.400841   7.111394
    25  N    1.383588   2.657246   4.882652   2.649144   6.082711
    26  H    2.018805   3.625472   4.921761   2.360467   6.216893
    27  C    2.478123   2.549170   6.171352   4.064197   7.293082
    28  H    2.860325   2.263208   6.575809   4.680942   7.610448
    29  H    3.353157   3.627114   6.923979   4.563362   8.121578
    30  H    2.792673   2.502880   6.332189   4.449130   7.375489
                   11         12         13         14         15
    11  C    0.000000
    12  H    3.390460   0.000000
    13  H    2.167221   2.491406   0.000000
    14  H    1.087393   4.291803   2.490704   0.000000
    15  N    1.309829   3.885883   3.362039   2.042643   0.000000
    16  B    4.253585   6.038464   6.237675   4.816019   2.944962
    17  C    4.257657   6.593424   6.336020   4.551839   3.098247
    18  H    3.988641   6.761351   6.140453   4.056040   2.958924
    19  H    3.891353   6.122137   5.828506   4.206047   2.893373
    20  H    5.336118   7.627413   7.407413   5.572293   4.193395
    21  C    5.613177   7.257754   7.582884   6.131535   4.321349
    22  H    6.391466   7.784001   8.311288   6.966308   5.082678
    23  H    5.804258   7.148657   7.641274   6.390964   4.571446
    24  H    6.032385   8.052372   8.101606   6.379186   4.783906
    25  N    6.326470   5.021948   7.013883   7.388757   5.577392
    26  H    6.666263   4.845532   7.055168   7.748824   6.079758
    27  C    7.362085   6.395072   8.270869   8.382705   6.452376
    28  H    7.532639   6.908126   8.628007   8.511911   6.519358
    29  H    8.304869   7.010313   9.053951   9.347089   7.458453
    30  H    7.353976   6.627074   8.364670   8.335799   6.403703
                   16         17         18         19         20
    16  B    0.000000
    17  C    1.569436   0.000000
    18  H    2.154753   1.098876   0.000000
    19  H    2.255306   1.091493   1.754470   0.000000
    20  H    2.226638   1.095520   1.758932   1.792370   0.000000
    21  C    1.576348   2.709591   3.113181   3.634263   2.844785
    22  H    2.169777   3.127509   3.781721   3.944171   2.982327
    23  H    2.263206   3.630563   3.918462   4.492720   3.906904
    24  H    2.235991   2.847319   2.975128   3.910378   2.757962
    25  N    4.970476   6.204677   6.939089   6.165643   6.784575
    26  H    5.833358   7.054088   7.736049   6.958487   7.696029
    27  C    5.208850   6.546172   7.324924   6.694500   6.947573
    28  H    4.897435   6.122326   6.997757   6.280474   6.377402
    29  H    6.294912   7.612323   8.407904   7.725952   7.988306
    30  H    5.047291   6.512381   7.185296   6.818666   6.921656
                   21         22         23         24         25
    21  C    0.000000
    22  H    1.101016   0.000000
    23  H    1.092795   1.763607   0.000000
    24  H    1.094170   1.749003   1.785532   0.000000
    25  N    5.370175   5.253289   5.063205   6.462314   0.000000
    26  H    6.277367   6.222689   5.901800   7.362149   1.006691
    27  C    5.193715   4.880078   4.796163   6.259743   1.448541
    28  H    4.827050   4.313499   4.613632   5.867232   2.104325
    29  H    6.241603   5.873071   5.812260   7.293704   2.070143
    30  H    4.791383   4.583418   4.197862   5.810122   2.132303
                   26         27         28         29         30
    26  H    0.000000
    27  C    2.082599   0.000000
    28  H    2.921513   1.093409   0.000000
    29  H    2.268079   1.089984   1.759674   0.000000
    30  H    2.688725   1.098291   1.777727   1.775308   0.000000
 Symmetry turned off by external request.
 Stoichiometry    C12H15BN2
 Framework group  C1[X(C12H15BN2)]
 Deg. of freedom    84
 Full point group                 C1      NOp   1
 Rotational constants (GHZ):           0.7272875           0.5384144           0.3223322
 General basis read from cards:  (5D, 7F)
 ======================================================================================================
                                       Pseudopotential Parameters
 ======================================================================================================
  Center     Atomic      Valence      Angular      Power
  Number     Number     Electrons     Momentum     of R      Exponent        Coefficient   SO-Coeffient
 ======================================================================================================
    1          6
                                   No pseudopotential on this center.
    2          6
                                   No pseudopotential on this center.
    3          6
                                   No pseudopotential on this center.
    4          6
                                   No pseudopotential on this center.
    5          6
                                   No pseudopotential on this center.
    6          6
                                   No pseudopotential on this center.
    7          1
                                   No pseudopotential on this center.
    8          6
                                   No pseudopotential on this center.
    9          1
                                   No pseudopotential on this center.
   10          6
                                   No pseudopotential on this center.
   11          6
                                   No pseudopotential on this center.
   12          1
                                   No pseudopotential on this center.
   13          1
                                   No pseudopotential on this center.
   14          1
                                   No pseudopotential on this center.
   15          7
                                   No pseudopotential on this center.
   16          5
                                   No pseudopotential on this center.
   17          6
                                   No pseudopotential on this center.
   18          1
                                   No pseudopotential on this center.
   19          1
                                   No pseudopotential on this center.
   20          1
                                   No pseudopotential on this center.
   21          6
                                   No pseudopotential on this center.
   22          1
                                   No pseudopotential on this center.
   23          1
                                   No pseudopotential on this center.
   24          1
                                   No pseudopotential on this center.
   25          7
                                   No pseudopotential on this center.
   26          1
                                   No pseudopotential on this center.
   27          6
                                   No pseudopotential on this center.
   28          1
                                   No pseudopotential on this center.
   29          1
                                   No pseudopotential on this center.
   30          1
                                   No pseudopotential on this center.
 ======================================================================================================
   435 basis functions,   675 primitive gaussians,   450 cartesian basis functions
    53 alpha electrons       53 beta electrons
       nuclear repulsion energy       915.5889217195 Hartrees.
 NAtoms=   30 NActive=   30 NUniq=   30 SFac= 1.00D+00 NAtFMM=   60 NAOKFM=F Big=F
 Integral buffers will be    131072 words long.
 Raffenetti 2 integral format.
 Two-electron integral symmetry is turned off.
 Nuclear repulsion after empirical dispersion term =      915.5690808463 Hartrees.
 ------------------------------------------------------------------------------
 Polarizable Continuum Model (PCM)
 =================================
 Model                : PCM.
 Atomic radii         : UFF (Universal Force Field).
 Polarization charges : Total charges.
 Charge compensation  : None.
 Solution method      : On-the-fly selection.
 Cavity type          : Scaled VdW (van der Waals Surface) (Alpha=1.100).
 Cavity algorithm     : GePol (No added spheres)
                        Default sphere list used, NSphG=   30.
                        Lebedev-Laikov grids with approx.  5.0 points / Ang**2.
                        Smoothing algorithm: York/Karplus (Gamma=1.0000).
                        Polarization charges: spherical gaussians, with
                                              point-specific exponents (IZeta= 3).
                        Self-potential: point-specific (ISelfS= 7).
                        Self-field    : sphere-specific E.n sum rule (ISelfD= 2).
 Solvent              : Toluene, Eps=   2.374100 Eps(inf)=   2.238315
 ------------------------------------------------------------------------------
 One-electron integrals computed using PRISM.
   1 Symmetry operations used in ECPInt.
 ECPInt:  NShTT=   13695 NPrTT=   45465 LenC2=   12791 LenP2D=   30498.
 LDataN:  DoStor=T MaxTD1= 4 Len=   56
 Number of processors reduced to 102 by ecpmxn.
 NBasis=   435 RedAO= T EigKep=  1.16D-06  NBF=   435
 NBsUse=   432 1.00D-06 EigRej=  4.59D-07 NBFU=   432
 ExpMin= 3.15D-02 ExpMax= 6.29D+03 ExpMxC= 9.49D+02 IAcc=3 IRadAn=         5 AccDes= 0.00D+00
 Harris functional with IExCor= 4639 and IRadAn=       5 diagonalized for initial guess.
 HarFok:  IExCor= 4639 AccDes= 0.00D+00 IRadAn=         5 IDoV= 1 UseB2=F ITyADJ=14
 ICtDFT=  3500011 ScaDFX=  1.000000  1.000000  1.000000  1.000000
 FoFCou: FMM=F IPFlag=           0 FMFlag=      100000 FMFlg1=           0
         NFxFlg=           0 DoJE=T BraDBF=F KetDBF=T FulRan=T
         wScrn=  0.000000 ICntrl=       500 IOpCl=  0 I1Cent=   200000004 NGrid=           0
         NMat0=    1 NMatS0=      1 NMatT0=    0 NMatD0=    1 NMtDS0=    0 NMtDT0=    0
 Symmetry not used in FoFCou.
 Requested convergence on RMS density matrix=1.00D-08 within 300 cycles.
 Requested convergence on MAX density matrix=1.00D-06.
 Requested convergence on             energy=1.00D-06.
 No special actions if energy rises.
 Inv3:  Mode=1 IEnd=    14999088.
 Iteration    1 A*A^-1 deviation from unit magnitude is 4.66D-15 for   2230.
 Iteration    1 A*A^-1 deviation from orthogonality  is 2.99D-15 for   2211    424.
 Iteration    1 A^-1*A deviation from unit magnitude is 4.44D-15 for   2230.
 Iteration    1 A^-1*A deviation from orthogonality  is 1.85D-15 for   2230   1566.
 Error on total polarization charges =  0.00973
 SCF Done:  E(RwB97XD) =  -600.639030619     A.U. after   17 cycles
            NFock= 17  Conv=0.39D-08     -V/T= 2.0044

 **********************************************************************

            Population analysis using the SCF Density.

 **********************************************************************

 Alpha  occ. eigenvalues --  -14.44695 -14.42672 -10.33486 -10.31766 -10.31735
 Alpha  occ. eigenvalues --  -10.31497 -10.30286 -10.30235 -10.29339 -10.29185
 Alpha  occ. eigenvalues --  -10.28382 -10.27426 -10.24719 -10.23902  -6.84250
 Alpha  occ. eigenvalues --   -1.04993  -1.04229  -0.94352  -0.90858  -0.85048
 Alpha  occ. eigenvalues --   -0.84823  -0.80198  -0.78389  -0.76589  -0.74098
 Alpha  occ. eigenvalues --   -0.71276  -0.70023  -0.62887  -0.61926  -0.60684
 Alpha  occ. eigenvalues --   -0.56672  -0.55689  -0.53703  -0.53531  -0.51076
 Alpha  occ. eigenvalues --   -0.50726  -0.50365  -0.50264  -0.49178  -0.48359
 Alpha  occ. eigenvalues --   -0.48114  -0.46386  -0.46048  -0.45649  -0.44545
 Alpha  occ. eigenvalues --   -0.43793  -0.39857  -0.38753  -0.38109  -0.36856
 Alpha  occ. eigenvalues --   -0.33623  -0.31548  -0.27189
 Alpha virt. eigenvalues --    0.00246   0.03747   0.04494   0.04616   0.04720
 Alpha virt. eigenvalues --    0.05321   0.05935   0.06165   0.06527   0.07352
 Alpha virt. eigenvalues --    0.07941   0.08166   0.08509   0.09247   0.09794
 Alpha virt. eigenvalues --    0.10129   0.10464   0.11149   0.11429   0.11687
 Alpha virt. eigenvalues --    0.12621   0.12927   0.13367   0.13730   0.15096
 Alpha virt. eigenvalues --    0.15316   0.15361   0.15832   0.16136   0.16366
 Alpha virt. eigenvalues --    0.16457   0.16978   0.17431   0.17725   0.18004
 Alpha virt. eigenvalues --    0.18215   0.18437   0.18889   0.19083   0.20078
 Alpha virt. eigenvalues --    0.20189   0.20371   0.20756   0.21140   0.21550
 Alpha virt. eigenvalues --    0.21774   0.21952   0.22418   0.22635   0.22945
 Alpha virt. eigenvalues --    0.23427   0.23912   0.24175   0.24415   0.24997
 Alpha virt. eigenvalues --    0.25298   0.25469   0.26221   0.26676   0.26868
 Alpha virt. eigenvalues --    0.27117   0.27628   0.28290   0.28554   0.28683
 Alpha virt. eigenvalues --    0.29630   0.30028   0.30566   0.31318   0.31857
 Alpha virt. eigenvalues --    0.32354   0.32459   0.32583   0.33103   0.34057
 Alpha virt. eigenvalues --    0.34394   0.34593   0.35220   0.35342   0.35494
 Alpha virt. eigenvalues --    0.36505   0.36738   0.37047   0.37518   0.37814
 Alpha virt. eigenvalues --    0.38141   0.38609   0.39314   0.39603   0.39733
 Alpha virt. eigenvalues --    0.40500   0.40644   0.40938   0.41422   0.41988
 Alpha virt. eigenvalues --    0.42177   0.42518   0.43796   0.44929   0.45549
 Alpha virt. eigenvalues --    0.46473   0.46696   0.47988   0.49647   0.51319
 Alpha virt. eigenvalues --    0.53588   0.54191   0.56319   0.57042   0.57583
 Alpha virt. eigenvalues --    0.58601   0.59646   0.59965   0.62212   0.62505
 Alpha virt. eigenvalues --    0.63485   0.64780   0.65016   0.65462   0.66073
 Alpha virt. eigenvalues --    0.66619   0.67367   0.67485   0.68290   0.69392
 Alpha virt. eigenvalues --    0.70006   0.70530   0.71265   0.71856   0.72108
 Alpha virt. eigenvalues --    0.73601   0.74078   0.74636   0.75114   0.75894
 Alpha virt. eigenvalues --    0.76962   0.77414   0.78236   0.79045   0.79428
 Alpha virt. eigenvalues --    0.80186   0.80773   0.81370   0.82206   0.82725
 Alpha virt. eigenvalues --    0.83661   0.84066   0.84929   0.85619   0.86580
 Alpha virt. eigenvalues --    0.86891   0.88008   0.89084   0.89945   0.90805
 Alpha virt. eigenvalues --    0.92654   0.92923   0.94141   0.95737   0.95825
 Alpha virt. eigenvalues --    0.97887   0.98729   0.99152   1.00030   1.01506
 Alpha virt. eigenvalues --    1.01701   1.02257   1.02629   1.04235   1.04495
 Alpha virt. eigenvalues --    1.05362   1.06353   1.08213   1.09087   1.10097
 Alpha virt. eigenvalues --    1.12951   1.13543   1.14406   1.14772   1.15225
 Alpha virt. eigenvalues --    1.16434   1.17320   1.18432   1.19502   1.21083
 Alpha virt. eigenvalues --    1.21870   1.23518   1.23809   1.26626   1.29491
 Alpha virt. eigenvalues --    1.30760   1.33288   1.37798   1.38544   1.39497
 Alpha virt. eigenvalues --    1.40227   1.42788   1.44437   1.46440   1.47172
 Alpha virt. eigenvalues --    1.52463   1.53457   1.55341   1.55653   1.57473
 Alpha virt. eigenvalues --    1.58333   1.58784   1.59821   1.61558   1.61982
 Alpha virt. eigenvalues --    1.63531   1.64089   1.65212   1.65800   1.66671
 Alpha virt. eigenvalues --    1.67284   1.68112   1.68528   1.70930   1.72780
 Alpha virt. eigenvalues --    1.73176   1.74115   1.75086   1.76733   1.78078
 Alpha virt. eigenvalues --    1.78635   1.79068   1.79804   1.80666   1.82555
 Alpha virt. eigenvalues --    1.82955   1.83395   1.85253   1.86157   1.88045
 Alpha virt. eigenvalues --    1.88457   1.89750   1.90869   1.94178   1.94510
 Alpha virt. eigenvalues --    1.95326   1.97556   1.98782   1.99819   2.00225
 Alpha virt. eigenvalues --    2.00874   2.03009   2.04076   2.04177   2.07040
 Alpha virt. eigenvalues --    2.07831   2.10846   2.11304   2.12034   2.14691
 Alpha virt. eigenvalues --    2.15517   2.16960   2.17533   2.19359   2.21512
 Alpha virt. eigenvalues --    2.22406   2.24461   2.24845   2.26801   2.28328
 Alpha virt. eigenvalues --    2.29254   2.30739   2.34653   2.35719   2.36373
 Alpha virt. eigenvalues --    2.39008   2.42141   2.44660   2.45142   2.47741
 Alpha virt. eigenvalues --    2.50918   2.52416   2.52612   2.55202   2.55401
 Alpha virt. eigenvalues --    2.56320   2.57897   2.59303   2.59626   2.61005
 Alpha virt. eigenvalues --    2.61436   2.63014   2.65791   2.67335   2.68086
 Alpha virt. eigenvalues --    2.68360   2.71380   2.71810   2.72810   2.73490
 Alpha virt. eigenvalues --    2.74109   2.74325   2.77596   2.78098   2.78861
 Alpha virt. eigenvalues --    2.81048   2.82071   2.82443   2.83596   2.84315
 Alpha virt. eigenvalues --    2.85370   2.86071   2.87019   2.87826   2.88543
 Alpha virt. eigenvalues --    2.90705   2.92213   2.94099   2.95584   2.96738
 Alpha virt. eigenvalues --    2.99055   3.01061   3.02461   3.02938   3.04915
 Alpha virt. eigenvalues --    3.08546   3.09907   3.12755   3.14481   3.15664
 Alpha virt. eigenvalues --    3.16249   3.20828   3.24042   3.31180   3.34407
 Alpha virt. eigenvalues --    3.37508   3.45140   3.46152   3.47370   3.52202
 Alpha virt. eigenvalues --    3.55326   3.60884   3.62827   3.66409   3.72247
 Alpha virt. eigenvalues --    3.75406   3.77818   3.78955   3.86319   3.86936
 Alpha virt. eigenvalues --    3.87626   3.90737   3.94634   3.97815   3.99400
 Alpha virt. eigenvalues --    4.04323   4.08390   4.09358   4.13464   4.16103
 Alpha virt. eigenvalues --    4.17671   4.27976   4.30716   4.59919   4.65874
 Alpha virt. eigenvalues --    4.93763   4.97190   5.16099   5.37695  14.81765
 Alpha virt. eigenvalues --   23.74649  23.97977  24.05091  24.07829  24.10373
 Alpha virt. eigenvalues --   24.13560  24.14905  24.15713  24.18121  24.25231
 Alpha virt. eigenvalues --   24.29981  24.30685  35.77413  35.85251
          Condensed to atoms (all electrons):
               1          2          3          4          5          6
     1  C   19.056706  -4.040331  -6.898145   4.184365  -4.837784  -1.698676
     2  C   -4.040331  14.267438   4.477547  -3.829300   1.169625  -3.687445
     3  C   -6.898145   4.477547  16.913406  -6.002159   1.847038  -1.751083
     4  C    4.184365  -3.829300  -6.002159  16.839381  -2.614235  -1.787059
     5  C   -4.837784   1.169625   1.847038  -2.614235  10.392129   1.055703
     6  C   -1.698676  -3.687445  -1.751083  -1.787059   1.055703  14.954734
     7  H    0.464244  -0.034169   0.040777   0.133973  -0.098019  -0.230581
     8  C   -0.684788  -2.055005  -1.883881  -2.029943  -0.180254   0.021001
     9  H   -0.108488   0.027983   0.107335   0.032432   0.444151  -0.158348
    10  C    0.613129   0.667069   0.915317   1.024900  -0.765269  -0.478052
    11  C   -0.687984  -0.398115   0.255956  -1.171733   0.084347   0.091537
    12  H    0.001031  -0.025447  -0.036826  -0.113523   0.055104   0.042136
    13  H    0.007794  -0.012125  -0.056697   0.037302   0.007515   0.004545
    14  H   -0.009419   0.032355   0.047302  -0.029761  -0.011122   0.000295
    15  N   -0.055077  -0.356843  -0.012423   0.210837   0.066750   0.076147
    16  B    0.159570   0.128630  -0.021311  -0.232521   0.034338   0.130182
    17  C    0.228831  -0.290593  -0.077354  -0.035864  -0.007491   0.065433
    18  H    0.042116  -0.033758  -0.005790   0.050196  -0.011870  -0.004131
    19  H    0.069110  -0.043691  -0.047801   0.054797  -0.013861  -0.002952
    20  H   -0.017125  -0.008116   0.001611   0.002083  -0.000147  -0.004314
    21  C    0.155657  -0.125217  -0.079135  -0.025359  -0.015140  -0.079586
    22  H   -0.084829   0.017444   0.036775  -0.000874   0.002206   0.029942
    23  H   -0.053322   0.098543   0.007041  -0.030801   0.013985  -0.023323
    24  H    0.039564  -0.018449  -0.008429   0.014144  -0.005088  -0.012455
    25  N   -0.170869  -0.001966   0.035824   0.003505   0.050635  -0.061167
    26  H    0.057404   0.007407  -0.001069   0.015572  -0.003393  -0.120540
    27  C    0.007905  -0.325300  -0.140175   0.019597   0.037984   0.240267
    28  H   -0.107270  -0.057069  -0.005766   0.003551   0.011033   0.132243
    29  H    0.085967  -0.010119  -0.008759   0.009559  -0.034537  -0.010457
    30  H   -0.012103   0.008539   0.005054  -0.013694   0.062339  -0.064780
               7          8          9         10         11         12
     1  C    0.464244  -0.684788  -0.108488   0.613129  -0.687984   0.001031
     2  C   -0.034169  -2.055005   0.027983   0.667069  -0.398115  -0.025447
     3  C    0.040777  -1.883881   0.107335   0.915317   0.255956  -0.036826
     4  C    0.133973  -2.029943   0.032432   1.024900  -1.171733  -0.113523
     5  C   -0.098019  -0.180254   0.444151  -0.765269   0.084347   0.055104
     6  C   -0.230581   0.021001  -0.158348  -0.478052   0.091537   0.042136
     7  H    0.588736   0.042491  -0.001452  -0.000422  -0.006807   0.000416
     8  C    0.042491  12.950591  -0.068122  -2.224233   1.401740   0.442811
     9  H   -0.001452  -0.068122   0.510054   0.043173  -0.017552   0.000425
    10  C   -0.000422  -2.224233   0.043173   8.077061  -1.270217  -0.080886
    11  C   -0.006807   1.401740  -0.017552  -1.270217   7.036456   0.040720
    12  H    0.000416   0.442811   0.000425  -0.080886   0.040720   0.454246
    13  H   -0.000034   0.014213   0.000516   0.346910  -0.030063  -0.004741
    14  H   -0.000338  -0.046199  -0.000347  -0.072619   0.469232   0.001041
    15  N    0.000119  -0.042566  -0.003351  -0.006923   0.164004  -0.000428
    16  B   -0.059469  -0.039885   0.000529  -0.025772   0.010953   0.000681
    17  C   -0.003788  -0.021097  -0.000070   0.010180  -0.016081   0.000094
    18  H   -0.000061  -0.000090  -0.000062   0.005981  -0.012209   0.000004
    19  H   -0.000554   0.003169  -0.000205   0.001843  -0.003333   0.000181
    20  H    0.001371  -0.000567   0.000038   0.001619  -0.000557  -0.000028
    21  C   -0.008087  -0.006294  -0.000298   0.000097   0.001282   0.000056
    22  H    0.000726   0.006801  -0.000132  -0.001835   0.001699   0.000046
    23  H   -0.001240  -0.001745   0.000450   0.000063   0.000914  -0.000071
    24  H    0.000289   0.000040  -0.000096   0.000841  -0.002469   0.000011
    25  N   -0.041165  -0.022505  -0.007297   0.002623  -0.001676  -0.000877
    26  H    0.002155   0.010916  -0.005005  -0.001605   0.001715   0.000789
    27  C   -0.029248  -0.046945   0.011398   0.010845  -0.009659  -0.001467
    28  H    0.007021  -0.002338   0.000541  -0.000064   0.000226  -0.000085
    29  H    0.004913  -0.002075   0.000925   0.000866  -0.000533  -0.000098
    30  H   -0.024166   0.002404  -0.000495  -0.000177   0.000444   0.000034
              13         14         15         16         17         18
     1  C    0.007794  -0.009419  -0.055077   0.159570   0.228831   0.042116
     2  C   -0.012125   0.032355  -0.356843   0.128630  -0.290593  -0.033758
     3  C   -0.056697   0.047302  -0.012423  -0.021311  -0.077354  -0.005790
     4  C    0.037302  -0.029761   0.210837  -0.232521  -0.035864   0.050196
     5  C    0.007515  -0.011122   0.066750   0.034338  -0.007491  -0.011870
     6  C    0.004545   0.000295   0.076147   0.130182   0.065433  -0.004131
     7  H   -0.000034  -0.000338   0.000119  -0.059469  -0.003788  -0.000061
     8  C    0.014213  -0.046199  -0.042566  -0.039885  -0.021097  -0.000090
     9  H    0.000516  -0.000347  -0.003351   0.000529  -0.000070  -0.000062
    10  C    0.346910  -0.072619  -0.006923  -0.025772   0.010180   0.005981
    11  C   -0.030063   0.469232   0.164004   0.010953  -0.016081  -0.012209
    12  H   -0.004741   0.001041  -0.000428   0.000681   0.000094   0.000004
    13  H    0.441158   0.000843   0.011017  -0.001287   0.000124   0.000175
    14  H    0.000843   0.485766  -0.101654  -0.004422   0.001189  -0.000265
    15  N    0.011017  -0.101654   6.920677   0.025226  -0.039148  -0.018728
    16  B   -0.001287  -0.004422   0.025226   4.414151   0.404565  -0.096134
    17  C    0.000124   0.001189  -0.039148   0.404565   5.356835   0.423765
    18  H    0.000175  -0.000265  -0.018728  -0.096134   0.423765   0.523900
    19  H    0.000090   0.000201  -0.014852  -0.117015   0.418676  -0.006159
    20  H    0.000024  -0.000809   0.014504  -0.086619   0.405108  -0.007586
    21  C   -0.000029  -0.000235   0.014947   0.344186  -0.063309  -0.010987
    22  H   -0.000015   0.000041  -0.001371  -0.095714  -0.012127   0.001871
    23  H    0.000004   0.000039   0.002278  -0.108532  -0.021752  -0.008115
    24  H   -0.000005  -0.000345   0.001315  -0.097245   0.005173  -0.000247
    25  N    0.000080  -0.000064   0.003920   0.017822   0.000531   0.000151
    26  H   -0.000072   0.000037   0.000410   0.002568   0.000164  -0.000007
    27  C    0.000138  -0.000212  -0.001061   0.002766   0.001889   0.000355
    28  H    0.000005   0.000004   0.000185   0.005093   0.000902   0.000113
    29  H    0.000012  -0.000008  -0.000095  -0.000706   0.000117   0.000010
    30  H   -0.000008   0.000007   0.000302  -0.003177  -0.000584  -0.000114
              19         20         21         22         23         24
     1  C    0.069110  -0.017125   0.155657  -0.084829  -0.053322   0.039564
     2  C   -0.043691  -0.008116  -0.125217   0.017444   0.098543  -0.018449
     3  C   -0.047801   0.001611  -0.079135   0.036775   0.007041  -0.008429
     4  C    0.054797   0.002083  -0.025359  -0.000874  -0.030801   0.014144
     5  C   -0.013861  -0.000147  -0.015140   0.002206   0.013985  -0.005088
     6  C   -0.002952  -0.004314  -0.079586   0.029942  -0.023323  -0.012455
     7  H   -0.000554   0.001371  -0.008087   0.000726  -0.001240   0.000289
     8  C    0.003169  -0.000567  -0.006294   0.006801  -0.001745   0.000040
     9  H   -0.000205   0.000038  -0.000298  -0.000132   0.000450  -0.000096
    10  C    0.001843   0.001619   0.000097  -0.001835   0.000063   0.000841
    11  C   -0.003333  -0.000557   0.001282   0.001699   0.000914  -0.002469
    12  H    0.000181  -0.000028   0.000056   0.000046  -0.000071   0.000011
    13  H    0.000090   0.000024  -0.000029  -0.000015   0.000004  -0.000005
    14  H    0.000201  -0.000809  -0.000235   0.000041   0.000039  -0.000345
    15  N   -0.014852   0.014504   0.014947  -0.001371   0.002278   0.001315
    16  B   -0.117015  -0.086619   0.344186  -0.095714  -0.108532  -0.097245
    17  C    0.418676   0.405108  -0.063309  -0.012127  -0.021752   0.005173
    18  H   -0.006159  -0.007586  -0.010987   0.001871  -0.008115  -0.000247
    19  H    0.568878  -0.024792  -0.009515  -0.004968  -0.006701  -0.001945
    20  H   -0.024792   0.564335   0.017189  -0.001255  -0.002978   0.006927
    21  C   -0.009515   0.017189   5.350089   0.414055   0.437457   0.415477
    22  H   -0.004968  -0.001255   0.414055   0.553760  -0.019947  -0.006345
    23  H   -0.006701  -0.002978   0.437457  -0.019947   0.563841  -0.009275
    24  H   -0.001945   0.006927   0.415477  -0.006345  -0.009275   0.518159
    25  N    0.000400   0.000146  -0.000320  -0.001917  -0.002588   0.000021
    26  H   -0.000014   0.000019  -0.000026   0.000097  -0.000331   0.000022
    27  C   -0.000010   0.000186   0.004926  -0.002575   0.002338   0.000765
    28  H    0.000209   0.000155  -0.003115  -0.001254  -0.000305  -0.000177
    29  H   -0.000013   0.000014  -0.000023  -0.000293   0.000186   0.000007
    30  H   -0.000098  -0.000083   0.003008   0.000661   0.000589   0.000050
              25         26         27         28         29         30
     1  C   -0.170869   0.057404   0.007905  -0.107270   0.085967  -0.012103
     2  C   -0.001966   0.007407  -0.325300  -0.057069  -0.010119   0.008539
     3  C    0.035824  -0.001069  -0.140175  -0.005766  -0.008759   0.005054
     4  C    0.003505   0.015572   0.019597   0.003551   0.009559  -0.013694
     5  C    0.050635  -0.003393   0.037984   0.011033  -0.034537   0.062339
     6  C   -0.061167  -0.120540   0.240267   0.132243  -0.010457  -0.064780
     7  H   -0.041165   0.002155  -0.029248   0.007021   0.004913  -0.024166
     8  C   -0.022505   0.010916  -0.046945  -0.002338  -0.002075   0.002404
     9  H   -0.007297  -0.005005   0.011398   0.000541   0.000925  -0.000495
    10  C    0.002623  -0.001605   0.010845  -0.000064   0.000866  -0.000177
    11  C   -0.001676   0.001715  -0.009659   0.000226  -0.000533   0.000444
    12  H   -0.000877   0.000789  -0.001467  -0.000085  -0.000098   0.000034
    13  H    0.000080  -0.000072   0.000138   0.000005   0.000012  -0.000008
    14  H   -0.000064   0.000037  -0.000212   0.000004  -0.000008   0.000007
    15  N    0.003920   0.000410  -0.001061   0.000185  -0.000095   0.000302
    16  B    0.017822   0.002568   0.002766   0.005093  -0.000706  -0.003177
    17  C    0.000531   0.000164   0.001889   0.000902   0.000117  -0.000584
    18  H    0.000151  -0.000007   0.000355   0.000113   0.000010  -0.000114
    19  H    0.000400  -0.000014  -0.000010   0.000209  -0.000013  -0.000098
    20  H    0.000146   0.000019   0.000186   0.000155   0.000014  -0.000083
    21  C   -0.000320  -0.000026   0.004926  -0.003115  -0.000023   0.003008
    22  H   -0.001917   0.000097  -0.002575  -0.001254  -0.000293   0.000661
    23  H   -0.002588  -0.000331   0.002338  -0.000305   0.000186   0.000589
    24  H    0.000021   0.000022   0.000765  -0.000177   0.000007   0.000050
    25  N    6.871865   0.399378   0.218867  -0.030374  -0.051120  -0.067506
    26  H    0.399378   0.402497  -0.050877   0.002250  -0.009304   0.001369
    27  C    0.218867  -0.050877   5.305402   0.391968   0.401764   0.444011
    28  H   -0.030374   0.002250   0.391968   0.551974  -0.018622  -0.050809
    29  H   -0.051120  -0.009304   0.401764  -0.018622   0.469570  -0.021957
    30  H   -0.067506   0.001369   0.444011  -0.050809  -0.021957   0.547819
 Mulliken charges:
               1
     1  C    0.292816
     2  C    0.450479
     3  C   -1.654180
     4  C    1.280633
     5  C   -0.736674
     6  C   -0.669213
     7  H    0.252370
     8  C    0.462358
     9  H    0.191371
    10  C   -0.794443
    11  C    0.067759
    12  H    0.224650
    13  H    0.232612
    14  H    0.239467
    15  N    0.141883
    16  B    0.308550
    17  C   -0.734316
    18  H    0.167679
    19  H    0.180926
    20  H    0.139649
    21  C   -0.731748
    22  H    0.169326
    23  H    0.163299
    24  H    0.159765
    25  N   -0.144358
    26  H    0.287473
    27  C   -0.495840
    28  H    0.169777
    29  H    0.194810
    30  H    0.183120
 Sum of Mulliken charges =  -0.00000
 Mulliken charges with hydrogens summed into heavy atoms:
               1
     1  C    0.545186
     2  C    0.450479
     3  C   -1.654180
     4  C    1.280633
     5  C   -0.545304
     6  C   -0.669213
     8  C    0.687008
    10  C   -0.561831
    11  C    0.307227
    15  N    0.141883
    16  B    0.308550
    17  C   -0.246062
    21  C   -0.239358
    25  N    0.143116
    27  C    0.051867
 Electronic spatial extent (au):  <R**2>=           6860.7007
 Charge=             -0.0000 electrons
 Dipole moment (field-independent basis, Debye):
    X=             -2.8528    Y=              2.6604    Z=             -0.4282  Tot=              3.9243
 Quadrupole moment (field-independent basis, Debye-Ang):
   XX=            -59.9365   YY=            -73.2058   ZZ=            -95.3093
   XY=             -9.7583   XZ=              4.2611   YZ=              0.1049
 Traceless Quadrupole moment (field-independent basis, Debye-Ang):
   XX=             16.2140   YY=              2.9447   ZZ=            -19.1587
   XY=             -9.7583   XZ=              4.2611   YZ=              0.1049
 Octapole moment (field-independent basis, Debye-Ang**2):
  XXX=            494.9850  YYY=           -294.3345  ZZZ=             20.4557  XYY=            177.2913
  XXY=            -42.4063  XXZ=            -20.0030  XZZ=            246.2959  YZZ=           -140.3174
  YYZ=             12.4681  XYZ=             12.8215
 Hexadecapole moment (field-independent basis, Debye-Ang**3):
 XXXX=          -4706.0297 YYYY=          -2652.7779 ZZZZ=           -275.8378 XXXY=            414.1454
 XXXZ=              5.8928 YYYX=            694.9692 YYYZ=            -44.6902 ZZZX=           -171.8430
 ZZZY=            -94.6334 XXYY=          -1174.4687 XXZZ=          -1140.0912 YYZZ=           -611.3796
 XXYZ=           -111.2861 YYXZ=            -44.4777 ZZXY=            354.5804
 N-N= 9.155690808463D+02 E-N=-3.226241168132D+03  KE= 5.980053192002D+02
 Breneman (CHELPG) radii used.
 Generate Potential Derived Charges using the Breneman model, NDens= 1.
 Grid spacing= 0.300 Box extension= 2.800
 NStep X,Y,Z=   51     45     33   Total possible points=       75735
 Number of Points to Fit=   18352

 **********************************************************************

            Electrostatic Properties Using The SCF Density.

 **********************************************************************

       Atomic Center    1 is at  -3.987825  1.073813 -0.221124
       Atomic Center    2 is at  -2.683334  0.630739 -0.216242
       Atomic Center    3 is at  -1.639892  1.586165 -0.022571
       Atomic Center    4 is at  -1.977777  2.950656  0.183757
       Atomic Center    5 is at  -3.329917  3.349815  0.208876
       Atomic Center    6 is at  -4.342833  2.432160  0.013688
       Atomic Center    7 is at  -4.781883  0.356140 -0.396268
       Atomic Center    8 is at  -0.911268  3.869942  0.348801
       Atomic Center    9 is at  -3.566872  4.396484  0.378574
       Atomic Center   10 is at   0.377621  3.420368  0.297468
       Atomic Center   11 is at   0.608301  2.043478  0.075316
       Atomic Center   12 is at  -1.132089  4.920592  0.509457
       Atomic Center   13 is at   1.216800  4.095064  0.418203
       Atomic Center   14 is at   1.628405  1.670258  0.025132
       Atomic Center   15 is at  -0.346867  1.161059 -0.081664
       Atomic Center   16 is at  -2.416404 -0.917525 -0.344925
       Atomic Center   17 is at  -1.413701 -1.666161  0.602313
       Atomic Center   18 is at  -0.483547 -1.792557  0.031029
       Atomic Center   19 is at  -1.147801 -1.119410  1.508799
       Atomic Center   20 is at  -1.761862 -2.672751  0.858683
       Atomic Center   21 is at  -3.258020 -1.756446 -1.380669
       Atomic Center   22 is at  -4.146824 -2.126618 -0.846594
       Atomic Center   23 is at  -3.616534 -1.190737 -2.244174
       Atomic Center   24 is at  -2.727399 -2.649382 -1.724638
       Atomic Center   25 is at  -5.670782  2.816343  0.070869
       Atomic Center   26 is at  -5.819445  3.808590 -0.011429
       Atomic Center   27 is at  -6.733289  1.994624 -0.471466
       Atomic Center   28 is at  -6.862701  1.082762  0.117859
       Atomic Center   29 is at  -7.666343  2.555125 -0.413893
       Atomic Center   30 is at  -6.563139  1.709757 -1.518434
   18352 points will be used for fitting atomic charges
 Fitting point charges to electrostatic potential
 Charges from ESP fit, RMS=   0.00385 RRMS=   0.26169:
 ESP charges:
               1
     1  C   -0.173784
     2  C   -0.418762
     3  C    0.479029
     4  C    0.043256
     5  C   -0.458700
     6  C    0.444138
     7  H    0.150972
     8  C   -0.052188
     9  H    0.169991
    10  C   -0.279919
    11  C    0.298705
    12  H    0.116364
    13  H    0.128953
    14  H    0.037925
    15  N   -0.604930
    16  B    0.704466
    17  C   -0.515750
    18  H    0.104186
    19  H    0.091719
    20  H    0.084259
    21  C   -0.482906
    22  H    0.092543
    23  H    0.069314
    24  H    0.093583
    25  N   -0.710193
    26  H    0.372370
    27  C    0.155271
    28  H    0.016595
    29  H    0.044968
    30  H   -0.001474
 Sum of ESP charges =  -0.00000
 ESP charges with hydrogens summed into heavy atoms:
               1
     1  C   -0.022812
     2  C   -0.418762
     3  C    0.479029
     4  C    0.043256
     5  C   -0.288709
     6  C    0.444138
     8  C    0.064175
    10  C   -0.150966
    11  C    0.336629
    15  N   -0.604930
    16  B    0.704466
    17  C   -0.235586
    21  C   -0.227466
    25  N   -0.337823
    27  C    0.215360
 Charge=  -0.00000 Dipole=    -2.8408     2.7450    -0.4079 Tot=     3.9713
 -----------------------------------------------------------------

              Electrostatic Properties (Atomic Units)

 -----------------------------------------------------------------
    Center     Electric         -------- Electric Field --------
               Potential          X             Y             Z
 -----------------------------------------------------------------
    1 Atom    -14.773446
    2 Atom    -14.796417
    3 Atom    -14.752365
    4 Atom    -14.764785
    5 Atom    -14.779017
    6 Atom    -14.727722
    7 Atom     -1.102484
    8 Atom    -14.763037
    9 Atom     -1.095149
   10 Atom    -14.772151
   11 Atom    -14.751578
   12 Atom     -1.092403
   13 Atom     -1.096455
   14 Atom     -1.114802
   15 Atom    -18.420850
   16 Atom    -11.476442
   17 Atom    -14.825901
   18 Atom     -1.127360
   19 Atom     -1.147731
   20 Atom     -1.137109
   21 Atom    -14.812853
   22 Atom     -1.108031
   23 Atom     -1.131463
   24 Atom     -1.127709
   25 Atom    -18.372137
   26 Atom     -1.026437
   27 Atom    -14.733521
   28 Atom     -1.105528
   29 Atom     -1.093407
   30 Atom     -1.107328
 -----------------------------------------------------------------
 Unable to Open any file for archive entry.
 1\1\GINC-IRENE4088\SP\RwB97XD\GenECP\C12H15B1N2\PENASFRA\09-Apr-2024\0
 \\# wb97xd/genecp scrf=(solvent=toluene,pcm) nosymm pop=(chelpg) scfcy
 c=300\\me_mequinolinamine_chelpg\\0,1\C,0,-3.987825,1.073813,-0.221124
 \C,0,-2.683334,0.630739,-0.216242\C,0,-1.639892,1.586165,-0.022571\C,0
 ,-1.977777,2.950656,0.183757\C,0,-3.329917,3.349815,0.208876\C,0,-4.34
 2833,2.43216,0.013688\H,0,-4.781883,0.35614,-0.396268\C,0,-0.911268,3.
 869942,0.348801\H,0,-3.566872,4.396484,0.378574\C,0,0.377621,3.420368,
 0.297468\C,0,0.608301,2.043478,0.075316\H,0,-1.132089,4.920592,0.50945
 7\H,0,1.2168,4.095064,0.418203\H,0,1.628405,1.670258,0.025132\N,0,-0.3
 46867,1.161059,-0.081664\B,0,-2.416404,-0.917525,-0.344925\C,0,-1.4137
 01,-1.666161,0.602313\H,0,-0.483547,-1.792557,0.031029\H,0,-1.147801,-
 1.11941,1.508799\H,0,-1.761862,-2.672751,0.858683\C,0,-3.25802,-1.7564
 46,-1.380669\H,0,-4.146824,-2.126618,-0.846594\H,0,-3.616534,-1.190737
 ,-2.244174\H,0,-2.727399,-2.649382,-1.724638\N,0,-5.670782,2.816343,0.
 070869\H,0,-5.819445,3.80859,-0.011429\C,0,-6.733289,1.994624,-0.47146
 6\H,0,-6.862701,1.082762,0.117859\H,0,-7.666343,2.555125,-0.413893\H,0
 ,-6.563139,1.709757,-1.518434\\Version=AS64L-G16RevC.02\HF=-600.639030
 6\RMSD=3.934e-09\Dipole=-1.1223897,1.046699,-0.1684534\Quadrupole=12.0
 547308,2.1893254,-14.2440562,-7.2550488,3.1680367,0.0779732\PG=C01 [X(
 C12H15B1N2)]\\@
 The archive entry for this job was punched.


 IT'S WHAT A FELLER THINKS HE KNOWS THAT HURTS HIM...
                    ------
           KIN HUBBARD
 Job cpu time:       0 days  1 hours  1 minutes 50.4 seconds.
 Elapsed time:       0 days  0 hours  0 minutes 38.4 seconds.
 File lengths (MBytes):  RWF=    185 Int=      0 D2E=      0 Chk=     13 Scr=      1
 Normal termination of Gaussian 16 at Tue Apr  9 17:52:45 2024.
