 Entering Gaussian System, Link 0=/ccc/products/gaussian-16-C.02/system/default/g16/g16
 Input=me_naphtoxanthene_chelpg.gjf
 Output=me_naphtoxanthene_chelpg.log
 Initial command:
 /ccc/products/gaussian-16-C.02/system/default/g16/l1.exe "/ccc/scratch/cont003/gen7343/penasfra/flp/b-n_flp/me_naphtoxanthene/reactant/Gau-188144.inp" -scrdir="/ccc/scratch/cont003/gen7343/penasfra/flp/b-n_flp/me_naphtoxanthene/reactant/"
 Entering Link 1 = /ccc/products/gaussian-16-C.02/system/default/g16/l1.exe PID=    188193.
  
 Copyright (c) 1988-2021, Gaussian, Inc.  All Rights Reserved.
  
 This is part of the Gaussian(R) 16 program.  It is based on
 the Gaussian(R) 09 system (copyright 2009, Gaussian, Inc.),
 the Gaussian(R) 03 system (copyright 2003, Gaussian, Inc.),
 the Gaussian(R) 98 system (copyright 1998, Gaussian, Inc.),
 the Gaussian(R) 94 system (copyright 1995, Gaussian, Inc.),
 the Gaussian 92(TM) system (copyright 1992, Gaussian, Inc.),
 the Gaussian 90(TM) system (copyright 1990, Gaussian, Inc.),
 the Gaussian 88(TM) system (copyright 1988, Gaussian, Inc.),
 the Gaussian 86(TM) system (copyright 1986, Carnegie Mellon
 University), and the Gaussian 82(TM) system (copyright 1983,
 Carnegie Mellon University). Gaussian is a federally registered
 trademark of Gaussian, Inc.
  
 This software contains proprietary and confidential information,
 including trade secrets, belonging to Gaussian, Inc.
  
 This software is provided under written license and may be
 used, copied, transmitted, or stored only in accord with that
 written license.
  
 The following legend is applicable only to US Government
 contracts under FAR:
  
                    RESTRICTED RIGHTS LEGEND
  
 Use, reproduction and disclosure by the US Government is
 subject to restrictions as set forth in subparagraphs (a)
 and (c) of the Commercial Computer Software - Restricted
 Rights clause in FAR 52.227-19.
  
 Gaussian, Inc.
 340 Quinnipiac St., Bldg. 40, Wallingford CT 06492
  
  
 ---------------------------------------------------------------
 Warning -- This program may not be used in any manner that
 competes with the business of Gaussian, Inc. or will provide
 assistance to any competitor of Gaussian, Inc.  The licensee
 of this program is prohibited from giving any competitor of
 Gaussian, Inc. access to this program.  By using this program,
 the user acknowledges that Gaussian, Inc. is engaged in the
 business of creating and licensing software in the field of
 computational chemistry and represents and warrants to the
 licensee that it is not a competitor of Gaussian, Inc. and that
 it will not use this program in any manner prohibited above.
 ---------------------------------------------------------------
  

 Cite this work as:
 Gaussian 16, Revision C.02,
 M. J. Frisch, G. W. Trucks, H. B. Schlegel, G. E. Scuseria, 
 M. A. Robb, J. R. Cheeseman, G. Scalmani, V. Barone, 
 G. A. Petersson, H. Nakatsuji, X. Li, M. Caricato, A. V. Marenich, 
 J. Bloino, B. G. Janesko, R. Gomperts, B. Mennucci, H. P. Hratchian, 
 J. V. Ortiz, A. F. Izmaylov, J. L. Sonnenberg, D. Williams-Young, 
 F. Ding, F. Lipparini, F. Egidi, J. Goings, B. Peng, A. Petrone, 
 T. Henderson, D. Ranasinghe, V. G. Zakrzewski, J. Gao, N. Rega, 
 G. Zheng, W. Liang, M. Hada, M. Ehara, K. Toyota, R. Fukuda, 
 J. Hasegawa, M. Ishida, T. Nakajima, Y. Honda, O. Kitao, H. Nakai, 
 T. Vreven, K. Throssell, J. A. Montgomery, Jr., J. E. Peralta, 
 F. Ogliaro, M. J. Bearpark, J. J. Heyd, E. N. Brothers, K. N. Kudin, 
 V. N. Staroverov, T. A. Keith, R. Kobayashi, J. Normand, 
 K. Raghavachari, A. P. Rendell, J. C. Burant, S. S. Iyengar, 
 J. Tomasi, M. Cossi, J. M. Millam, M. Klene, C. Adamo, R. Cammi, 
 J. W. Ochterski, R. L. Martin, K. Morokuma, O. Farkas, 
 J. B. Foresman, and D. J. Fox, Gaussian, Inc., Wallingford CT, 2019.
 
 ******************************************
 Gaussian 16:  AS64L-G16RevC.02  7-Dec-2021
                10-Apr-2024 
 ******************************************
 %nprocshared=128
 Will use up to  128 processors via shared memory.
 %mem=30GB
 %chk=me_naphtoxanthene_chelpg.chk
 ----------------------------------------------------------------------
 # wb97xd/genecp scrf=(solvent=toluene,pcm) nosymm pop=(chelpg) scfcyc=
 300
 ----------------------------------------------------------------------
 1/38=1,172=1/1;
 2/12=2,15=1,17=6,18=5,40=1/2;
 3/5=7,11=2,16=1,17=8,25=1,30=1,70=2201,72=13,74=-58/1,2,3;
 4//1;
 5/5=2,7=300,38=5,53=13/2;
 6/7=2,8=2,9=2,10=2,15=8,20=3,28=1/1,2;
 99/5=1,9=1/99;
 ------------------------
 me_naphtoxanthene_chelpg
 ------------------------
 Symbolic Z-matrix:
 Charge =  0 Multiplicity = 1
 C                    -2.14457   1.6371    1.20476 
 C                    -0.9137    1.83223   1.88812 
 C                    -0.09445   2.913     1.67755 
 C                    -0.47779   3.92018   0.76666 
 C                    -1.70408   3.779     0.08649 
 C                    -2.5036    2.63825   0.31041 
 H                    -0.59715   1.07651   2.59867 
 H                     0.84466   3.00605   2.21191 
 C                    -2.13183   4.77785  -0.83363 
 O                    -3.6954    2.51354  -0.34142 
 C                    -3.37857   4.59747  -1.49967 
 C                    -4.13778   3.45146  -1.23023 
 C                    -3.82593   5.54902  -2.44018 
 C                    -5.35481   3.21403  -1.86296 
 C                    -5.04807   5.30763  -3.08935 
 C                    -5.78364   4.17874  -2.8002 
 H                    -5.41764   6.02042  -3.81841 
 H                    -6.72672   4.0269   -3.31003 
 B                    -2.98343   0.33158   1.46401 
 N                    -6.07444   2.03454  -1.58968 
 C                    -2.99531  -0.31256   2.90218 
 H                    -3.95244  -0.00427   3.35101 
 H                    -3.02413  -1.40665   2.87277 
 H                    -2.21173   0.01021   3.59112 
 C                    -3.78576  -0.41415   0.33447 
 H                    -3.08761  -1.16896  -0.06207 
 H                    -4.63651  -0.97904   0.73008 
 H                    -4.11186   0.19827  -0.50525 
 C                    -6.55711   1.8882   -0.22081 
 H                    -7.40799   2.55712  -0.01551 
 H                    -6.88149   0.85638  -0.06647 
 H                    -5.76112   2.0998    0.48989 
 C                    -7.0753    1.64427  -2.56292 
 H                    -7.38079   0.61703  -2.35209 
 H                    -7.9795    2.27528  -2.5381 
 H                    -6.65505   1.67253  -3.56981 
 C                    -3.00327   6.69766  -2.67905 
 H                    -3.34435   7.43662  -3.39655 
 C                    -1.82146   6.86831  -2.02959 
 H                    -1.21389   7.74596  -2.22451 
 C                    -1.34855   5.90167  -1.08454 
 C                    -0.10888   6.03028  -0.38775 
 C                     0.30798   5.08423   0.49844 
 H                     0.50601   6.90433  -0.57718 
 H                     1.25303   5.20124   1.01798 
 
                          Input orientation:                          
 ---------------------------------------------------------------------
 Center     Atomic      Atomic             Coordinates (Angstroms)
 Number     Number       Type             X           Y           Z
 ---------------------------------------------------------------------
      1          6           0       -2.144572    1.637097    1.204756
      2          6           0       -0.913703    1.832232    1.888124
      3          6           0       -0.094446    2.912998    1.677545
      4          6           0       -0.477794    3.920177    0.766656
      5          6           0       -1.704083    3.778998    0.086491
      6          6           0       -2.503601    2.638250    0.310412
      7          1           0       -0.597151    1.076509    2.598668
      8          1           0        0.844662    3.006048    2.211912
      9          6           0       -2.131827    4.777845   -0.833625
     10          8           0       -3.695396    2.513543   -0.341420
     11          6           0       -3.378571    4.597467   -1.499672
     12          6           0       -4.137777    3.451463   -1.230227
     13          6           0       -3.825930    5.549023   -2.440182
     14          6           0       -5.354808    3.214026   -1.862960
     15          6           0       -5.048069    5.307631   -3.089349
     16          6           0       -5.783635    4.178741   -2.800197
     17          1           0       -5.417639    6.020416   -3.818411
     18          1           0       -6.726722    4.026904   -3.310028
     19          5           0       -2.983428    0.331575    1.464005
     20          7           0       -6.074444    2.034543   -1.589676
     21          6           0       -2.995309   -0.312563    2.902181
     22          1           0       -3.952443   -0.004265    3.351009
     23          1           0       -3.024127   -1.406646    2.872769
     24          1           0       -2.211734    0.010209    3.591122
     25          6           0       -3.785764   -0.414147    0.334474
     26          1           0       -3.087615   -1.168962   -0.062074
     27          1           0       -4.636514   -0.979036    0.730078
     28          1           0       -4.111859    0.198273   -0.505246
     29          6           0       -6.557109    1.888202   -0.220811
     30          1           0       -7.407993    2.557124   -0.015511
     31          1           0       -6.881487    0.856376   -0.066471
     32          1           0       -5.761117    2.099796    0.489892
     33          6           0       -7.075299    1.644273   -2.562922
     34          1           0       -7.380789    0.617027   -2.352089
     35          1           0       -7.979497    2.275279   -2.538098
     36          1           0       -6.655052    1.672534   -3.569809
     37          6           0       -3.003271    6.697664   -2.679045
     38          1           0       -3.344350    7.436615   -3.396547
     39          6           0       -1.821463    6.868310   -2.029592
     40          1           0       -1.213891    7.745959   -2.224506
     41          6           0       -1.348545    5.901669   -1.084536
     42          6           0       -0.108881    6.030276   -0.387750
     43          6           0        0.307977    5.084228    0.498439
     44          1           0        0.506010    6.904330   -0.577178
     45          1           0        1.253025    5.201236    1.017982
 ---------------------------------------------------------------------
                    Distance matrix (angstroms):
                    1          2          3          4          5
     1  C    0.000000
     2  C    1.421305   0.000000
     3  C    2.460583   1.372436   0.000000
     4  C    2.860513   2.409818   1.411058   0.000000
     5  C    2.456071   2.767757   2.423291   1.409376   0.000000
     6  C    1.389626   2.380465   2.783625   2.440367   1.410913
     7  H    2.156794   1.084525   2.115153   3.384813   3.852243
     8  H    3.438591   2.138815   1.084495   2.161779   3.407487
     9  C    3.744257   4.191465   3.732901   2.456078   1.423824
    10  O    2.358786   3.629444   4.147605   3.682311   2.397876
    11  C    4.195292   5.019887   4.870074   3.742923   2.447389
    12  C    3.632345   4.768718   5.009352   4.195558   2.786376
    13  C    5.604971   6.405453   6.150470   4.913956   3.744236
    14  C    4.712027   5.975232   6.348008   5.585588   4.177002
    15  C    6.351571   7.344836   7.279830   6.138503   4.858490
    16  C    5.978493   7.155606   7.349772   6.398535   5.013532
    17  H    7.426888   8.389926   8.258206   7.059455   5.836327
    18  H    6.862256   8.101146   8.372799   7.461893   6.068336
    19  B    1.573301   2.591449   3.880150   4.431993   3.926703
    20  N    4.838461   6.226497   6.870720   6.358491   4.995269
    21  C    2.721430   3.156191   4.507658   5.367908   5.131885
    22  H    3.250980   3.840143   5.118110   5.844083   5.479533
    23  H    3.580538   3.989204   5.354523   6.268538   6.032973
    24  H    2.888948   2.811557   4.070733   5.125622   5.171452
    25  C    2.767400   3.963430   5.147773   5.469535   4.688001
    26  H    3.219962   4.187640   5.352358   5.779039   5.139897
    27  H    3.644070   4.806623   6.056072   6.426397   5.626033
    28  H    2.977338   4.315813   5.317322   5.355066   4.355356
    29  C    4.643897   6.024846   6.813221   6.485529   5.217414
    30  H    5.480794   6.806254   7.515388   7.106149   5.834207
    31  H    4.966277   6.355091   7.303096   7.147605   5.947321
    32  H    3.715443   5.052135   5.846621   5.594988   4.409306
    33  C    6.205443   7.603447   8.265805   7.732587   6.358176
    34  H    6.411681   7.828112   8.637142   8.263698   6.940441
    35  H    6.961507   8.349442   8.963948   8.360780   6.966381
    36  H    6.568269   7.923233   8.492057   7.874982   6.505214
    37  C    6.436662   6.992693   6.462572   5.095618   4.225481
    38  H    7.499724   8.077432   7.534680   6.157495   5.310385
    39  C    6.158814   6.444735   5.689459   4.279712   3.746389
    40  H    7.067121   7.209439   6.311630   4.911771   4.617118
    41  C    4.905211   5.058272   4.258405   2.848057   2.450193
    42  C    5.097071   4.842614   3.739395   2.433366   2.799612
    43  C    4.289125   3.741551   2.503293   1.429822   2.433457
    44  H    6.159920   5.815452   4.623316   3.417445   3.884928
    45  H    4.927640   4.099030   2.736190   2.167951   3.411000
                    6          7          8          9         10
     6  C    0.000000
     7  H    3.362990   0.000000
     8  H    3.868054   2.439575   0.000000
     9  C    2.454568   5.275960   4.612380   0.000000
    10  O    1.364116   4.506474   5.232035   2.795367   0.000000
    11  C    2.807224   6.076992   5.843301   1.424965   2.405133
    12  C    2.388601   5.730347   6.072184   2.437297   1.365786
    13  C    4.217454   7.471172   7.065630   2.458806   3.692693
    14  C    3.631039   6.863702   7.421675   3.727287   2.357840
    15  C    5.015804   8.370580   8.253783   3.724706   4.145813
    16  C    4.775733   8.103777   8.392304   4.190708   3.630318
    17  H    6.080941   9.426464   9.201501   4.609717   5.230081
    18  H    5.733297   9.010503   9.426549   5.273476   4.504646
    19  B    2.623311   2.745306   4.729317   5.076775   2.920178
    20  N    4.089709   6.961379   7.954239   4.862257   2.729002
    21  C    3.958073   2.787975   5.122014   6.372919   4.358663
    22  H    4.281035   3.604452   5.776828   6.610172   4.476546
    23  H    4.816410   3.483016   5.905601   7.265087   5.113658
    24  H    4.213650   2.174589   4.496535   6.505008   4.892118
    25  C    3.310838   4.185198   6.055027   5.572858   3.006055
    26  H    3.869713   4.280666   6.169645   6.072342   3.742763
    27  H    4.220213   4.902382   6.936859   6.469954   3.772522
    28  H    3.034020   4.770613   6.311390   5.000084   2.358125
    29  C    4.156404   6.642997   7.871082   5.320592   2.931723
    30  H    4.915879   7.444039   8.559747   5.782633   3.727129
    31  H    4.741624   6.829663   8.336996   6.206909   3.601802
    32  H    3.306593   5.671031   6.886433   4.700573   2.264833
    33  C    5.490397   8.302456   9.347687   6.103086   4.136961
    34  H    5.912801   8.410640   9.705440   6.868023   4.606700
    35  H    6.183138   9.073172  10.048005   6.585082   4.820341
    36  H    5.763963   8.666229   9.563068   6.131005   4.459748
    37  C    5.066100   8.077193   7.235750   2.801909   4.842561
    38  H    6.121496   9.161913   8.284477   3.886880   5.804625
    39  C    4.882042   7.514299   6.325792   2.428314   5.032449
    40  H    5.846183   8.253783   6.810742   3.403947   6.089504
    41  C    3.732283   6.116597   4.905237   1.392648   4.187998
    42  C    4.210458   5.804904   4.100420   2.420681   5.023211
    43  C    3.731372   4.614329   2.746425   2.796589   4.831230
    44  H    5.295754   6.728035   4.805238   3.397924   6.081645
    45  H    4.602368   4.789060   2.532011   3.881357   5.792973
                   11         12         13         14         15
    11  C    0.000000
    12  C    1.400828   0.000000
    13  C    1.410726   2.441515   0.000000
    14  C    2.439549   1.392082   2.850064   0.000000
    15  C    2.412184   2.780346   1.404746   2.445670   0.000000
    16  C    2.766049   2.388009   2.416587   1.411730   1.378063
    17  H    3.399872   3.864746   2.157606   3.421047   1.084516
    18  H    3.848772   3.370362   3.389406   2.153352   2.122931
    19  B    5.209353   4.280784   6.570711   5.000066   7.053858
    20  N    3.720808   2.426426   4.258021   1.408453   3.743737
    21  C    6.605422   5.705254   7.974269   6.380489   8.467517
    22  H    6.710765   5.741440   8.024519   6.285658   8.419908
    23  H    7.435943   6.455696   8.789293   7.014971   9.204603
    24  H    6.951304   6.228746   8.346300   7.063311   8.985331
    25  C    5.352212   4.185110   6.577213   4.522638   6.786363
    26  H    5.950046   4.880138   7.164623   5.252993   7.413099
    27  H    6.136089   4.870406   7.302270   4.982124   7.367468
    28  H    4.569409   3.333094   5.697039   3.533140   5.801691
    29  C    4.367918   3.052191   5.078047   2.428990   4.711497
    30  H    4.754153   3.601346   5.259436   2.839042   4.752158
    31  H    5.321677   3.951803   6.082094   3.334162   5.684442
    32  H    3.984125   2.724160   4.922139   2.634864   4.858972
    33  C    4.849500   3.697438   5.081391   2.431905   4.219832
    34  H    5.708613   4.450812   6.080244   3.329902   5.290265
    35  H    5.257319   4.225251   5.289528   2.868109   4.253505
    36  H    4.855515   3.869742   4.930229   2.642000   4.003394
    37  C    2.437744   3.731487   1.432899   4.281525   2.506340
    38  H    3.414684   4.604770   2.170151   4.921797   2.744012
    39  C    2.803949   4.204657   2.434541   5.085871   3.737618
    40  H    3.888988   5.289650   3.419911   6.149498   4.625399
    41  C    2.448323   3.715448   2.845975   4.886667   4.249545
    42  C    3.739009   4.857164   4.273235   6.134106   5.675952
    43  C    4.221377   5.041720   5.093203   6.414125   6.450532
    44  H    4.611137   5.823532   4.906460   7.044201   6.301448
    45  H    5.306110   6.097286   6.154319   7.477452   7.522318
                   16         17         18         19         20
    16  C    0.000000
    17  H    2.135996   0.000000
    18  H    1.082772   2.438492   0.000000
    19  B    6.389465   8.135860   7.103457   0.000000
    20  N    2.479418   4.613658   2.711933   4.666846   0.000000
    21  C    7.775840   9.546762   8.446654   1.575882   5.930157
    22  H    7.660818   9.478616   8.265371   2.147688   5.750652
    23  H    8.425792  10.279204   9.025500   2.237786   6.407779
    24  H    8.425206  10.064869   9.173049   2.285479   6.771937
    25  C    5.908661   7.830266   6.454035   1.573431   3.864776
    26  H    6.585117   8.439564   7.126663   2.142751   4.638659
    27  H    6.354635   8.383987   6.763938   2.233617   4.065779
    28  H    4.889352   6.824916   5.418738   2.273560   2.898209
    29  C    3.535260   5.596098   3.761127   4.246515   1.458826
    30  H    3.608692   5.515247   3.671270   5.169024   2.128248
    31  H    4.440343   6.548833   4.538377   4.220502   2.087953
    32  H    3.891941   5.835299   4.368699   3.433811   2.104052
    33  C    2.854509   4.845071   2.521231   5.889204   1.449562
    34  H    3.929059   5.933015   3.601765   5.829309   2.072960
    35  H    2.917820   4.714697   2.287687   6.689957   2.141655
    36  H    2.762742   4.527369   2.369743   6.373247   2.095014
    37  C    3.753675   2.754268   4.625493   7.595548   5.688895
    38  H    4.113330   2.546000   4.803546   8.616079   6.316690
    39  C    4.850404   4.105031   5.811598   7.502285   6.453424
    40  H    5.825721   4.815551   6.738029   8.468144   7.526504
    41  C    5.057865   4.903641   6.114928   6.339862   6.127312
    42  C    6.438239   6.320795   7.506599   6.645842   7.280003
    43  C    6.986318   7.231481   8.069036   5.861175   7.375371
    44  H    7.206267   6.810030   8.249876   7.716457   8.248779
    45  H    8.070847   8.280067   9.153529   6.469936   8.397596
                   21         22         23         24         25
    21  C    0.000000
    22  H    1.101181   0.000000
    23  H    1.094858   1.748473   0.000000
    24  H    1.092159   1.757251   1.784234   0.000000
    25  C    2.688542   3.048814   2.829856   3.641896   0.000000
    26  H    3.086867   3.708582   2.945136   3.937442   1.102002
    27  H    2.802815   2.878786   2.715468   3.878626   1.095161
    28  H    3.621905   3.864859   3.894857   4.519521   1.089278
    29  C    5.223300   4.808702   5.736569   6.077826   3.645477
    30  H    6.018290   5.462142   6.578139   6.818774   4.698030
    31  H    5.028090   4.582485   5.351600   5.991709   3.370235
    32  H    4.391846   3.985519   5.046222   5.155785   3.200950
    33  C    7.095271   6.887996   7.434167   8.012284   4.842834
    34  H    6.906803   6.683179   7.097528   7.899944   4.604904
    35  H    7.818932   7.489664   8.209126   8.715789   5.750833
    36  H    7.695517   7.616658   8.010729   8.589839   5.275460
    37  C    8.960660   9.065226   9.823590   9.201281   7.763469
    38  H    9.992275  10.063100  10.844820  10.259719   8.703438
    39  C    8.790065   8.984666   9.693010   8.875713   7.904522
    40  H    9.715768   9.932372  10.631526   9.729288   8.930299
    41  C    7.564550   7.831628   8.478166   7.570745   6.916875
    42  C    7.706278   8.072606   8.627714   7.516290   7.454640
    43  C    6.768680   7.223648   7.672796   6.454402   6.856947
    44  H    8.743496   9.112472   9.666247   8.502339   8.532909
    45  H    7.211139   7.722509   8.086926   6.750731   7.575560
                   26         27         28         29         30
    26  H    0.000000
    27  H    1.750047   0.000000
    28  H    1.764882   1.785314   0.000000
    29  C    4.626969   3.579655   2.985969   0.000000
    30  H    5.705397   4.554276   4.082710   1.101639   0.000000
    31  H    4.300637   3.007180   2.880358   1.092569   1.781109
    32  H    4.258763   3.286583   2.706685   1.087876   1.782353
    33  C    5.483626   4.865519   3.886763   2.411121   2.726405
    34  H    5.183172   4.424728   3.777842   2.614705   3.037155
    35  H    6.474875   5.696233   4.837878   2.746422   2.601826
    36  H    5.753687   5.440069   4.246507   3.357364   3.739312
    37  C    8.290926   8.556946   6.942367   6.465571   6.606062
    38  H    9.232582   9.461602   7.832132   7.154859   7.194027
    39  C    8.370903   8.781864   7.215188   7.106301   7.338403
    40  H    9.362840   9.826976   8.265690   8.177903   8.376787
    41  C    7.352796   7.838856   6.363977   6.631974   7.003264
    42  C    7.797945   8.418994   7.074595   7.665787   8.091871
    43  C    7.137689   7.827185   6.664450   7.606662   8.135514
    44  H    8.851978   9.502733   8.142548   8.670420   9.046829
    45  H    7.783772   8.541974   7.492119   8.573739   9.114421
                   31         32         33         34         35
    31  H    0.000000
    32  H    1.763764   0.000000
    33  C    2.624998   3.354735   0.000000
    34  H    2.351731   3.591490   1.092250   0.000000
    35  H    3.054153   3.757756   1.102887   1.772809   0.000000
    36  H    3.604270   4.178857   1.091434   1.767380   1.783784
    37  C    7.482429   6.228023   6.490890   7.499581   6.658842
    38  H    8.179260   7.030420   6.940183   7.993154   6.990058
    39  C    8.099447   6.678877   7.428176   8.371896   7.699084
    40  H    9.178514   7.741084   8.467656   9.427013   8.706326
    41  C    7.556777   6.033561   7.287438   8.119243   7.696302
    42  C    8.528813   6.940223   8.514656   9.275912   8.981681
    43  C    8.359560   6.763195   8.701608   9.338015   9.262450
    44  H    9.561050   7.968630   9.438624  10.241196   9.862918
    45  H    9.285695   7.687392   9.738369  10.339976  10.317286
                   36         37         38         39         40
    36  H    0.000000
    37  C    6.275420   0.000000
    38  H    6.649466   1.084985   0.000000
    39  C    7.261676   1.359257   2.123846   0.000000
    40  H    8.264537   2.123066   2.451169   1.085082   0.000000
    41  C    7.226422   2.431910   3.418288   1.432193   2.172342
    42  C    8.483382   3.751391   4.636692   2.516125   2.745594
    43  C    8.756373   4.864560   5.834735   3.756116   4.100649
    44  H    9.359933   4.095804   4.801816   2.743708   2.525884
    45  H    9.799859   5.832955   6.754320   4.638892   4.803646
                   41         42         43         44         45
    41  C    0.000000
    42  C    1.427872   0.000000
    43  C    2.432711   1.361656   0.000000
    44  H    2.168436   1.085331   2.123427   0.000000
    45  H    3.417507   2.125601   1.084773   2.450122   0.000000
 Symmetry turned off by external request.
 Stoichiometry    C22H20BNO
 Framework group  C1[X(C22H20BNO)]
 Deg. of freedom   129
 Full point group                 C1      NOp   1
 Rotational constants (GHZ):           0.2662676           0.2616430           0.1355360
 General basis read from cards:  (5D, 7F)
 ======================================================================================================
                                       Pseudopotential Parameters
 ======================================================================================================
  Center     Atomic      Valence      Angular      Power
  Number     Number     Electrons     Momentum     of R      Exponent        Coefficient   SO-Coeffient
 ======================================================================================================
    1          6
                                   No pseudopotential on this center.
    2          6
                                   No pseudopotential on this center.
    3          6
                                   No pseudopotential on this center.
    4          6
                                   No pseudopotential on this center.
    5          6
                                   No pseudopotential on this center.
    6          6
                                   No pseudopotential on this center.
    7          1
                                   No pseudopotential on this center.
    8          1
                                   No pseudopotential on this center.
    9          6
                                   No pseudopotential on this center.
   10          8
                                   No pseudopotential on this center.
   11          6
                                   No pseudopotential on this center.
   12          6
                                   No pseudopotential on this center.
   13          6
                                   No pseudopotential on this center.
   14          6
                                   No pseudopotential on this center.
   15          6
                                   No pseudopotential on this center.
   16          6
                                   No pseudopotential on this center.
   17          1
                                   No pseudopotential on this center.
   18          1
                                   No pseudopotential on this center.
   19          5
                                   No pseudopotential on this center.
   20          7
                                   No pseudopotential on this center.
   21          6
                                   No pseudopotential on this center.
   22          1
                                   No pseudopotential on this center.
   23          1
                                   No pseudopotential on this center.
   24          1
                                   No pseudopotential on this center.
   25          6
                                   No pseudopotential on this center.
   26          1
                                   No pseudopotential on this center.
   27          1
                                   No pseudopotential on this center.
   28          1
                                   No pseudopotential on this center.
   29          6
                                   No pseudopotential on this center.
   30          1
                                   No pseudopotential on this center.
   31          1
                                   No pseudopotential on this center.
   32          1
                                   No pseudopotential on this center.
   33          6
                                   No pseudopotential on this center.
   34          1
                                   No pseudopotential on this center.
   35          1
                                   No pseudopotential on this center.
   36          1
                                   No pseudopotential on this center.
   37          6
                                   No pseudopotential on this center.
   38          1
                                   No pseudopotential on this center.
   39          6
                                   No pseudopotential on this center.
   40          1
                                   No pseudopotential on this center.
   41          6
                                   No pseudopotential on this center.
   42          6
                                   No pseudopotential on this center.
   43          6
                                   No pseudopotential on this center.
   44          1
                                   No pseudopotential on this center.
   45          1
                                   No pseudopotential on this center.
 ======================================================================================================
   690 basis functions,  1080 primitive gaussians,   715 cartesian basis functions
    86 alpha electrons       86 beta electrons
       nuclear repulsion energy      2099.3935098553 Hartrees.
 NAtoms=   45 NActive=   45 NUniq=   45 SFac= 1.00D+00 NAtFMM=   60 NAOKFM=F Big=F
 Integral buffers will be    131072 words long.
 Raffenetti 2 integral format.
 Two-electron integral symmetry is turned off.
 Nuclear repulsion after empirical dispersion term =     2099.3558056795 Hartrees.
 ------------------------------------------------------------------------------
 Polarizable Continuum Model (PCM)
 =================================
 Model                : PCM.
 Atomic radii         : UFF (Universal Force Field).
 Polarization charges : Total charges.
 Charge compensation  : None.
 Solution method      : On-the-fly selection.
 Cavity type          : Scaled VdW (van der Waals Surface) (Alpha=1.100).
 Cavity algorithm     : GePol (No added spheres)
                        Default sphere list used, NSphG=   45.
                        Lebedev-Laikov grids with approx.  5.0 points / Ang**2.
                        Smoothing algorithm: York/Karplus (Gamma=1.0000).
                        Polarization charges: spherical gaussians, with
                                              point-specific exponents (IZeta= 3).
                        Self-potential: point-specific (ISelfS= 7).
                        Self-field    : sphere-specific E.n sum rule (ISelfD= 2).
 Solvent              : Toluene, Eps=   2.374100 Eps(inf)=   2.238315
 ------------------------------------------------------------------------------
 One-electron integrals computed using PRISM.
   1 Symmetry operations used in ECPInt.
 ECPInt:  NShTT=   31375 NPrTT=  108855 LenC2=   27653 LenP2D=   64809.
 LDataN:  DoStor=T MaxTD1= 4 Len=   56
 Number of processors reduced to  69 by ecpmxn.
 NBasis=   690 RedAO= T EigKep=  1.20D-06  NBF=   690
 NBsUse=   676 1.00D-06 EigRej=  8.50D-07 NBFU=   676
 ExpMin= 3.15D-02 ExpMax= 8.59D+03 ExpMxC= 1.30D+03 IAcc=3 IRadAn=         5 AccDes= 0.00D+00
 Harris functional with IExCor= 4639 and IRadAn=       5 diagonalized for initial guess.
 HarFok:  IExCor= 4639 AccDes= 0.00D+00 IRadAn=         5 IDoV= 1 UseB2=F ITyADJ=14
 ICtDFT=  3500011 ScaDFX=  1.000000  1.000000  1.000000  1.000000
 FoFCou: FMM=F IPFlag=           0 FMFlag=      100000 FMFlg1=           0
         NFxFlg=           0 DoJE=T BraDBF=F KetDBF=T FulRan=T
         wScrn=  0.000000 ICntrl=       500 IOpCl=  0 I1Cent=   200000004 NGrid=           0
         NMat0=    1 NMatS0=      1 NMatT0=    0 NMatD0=    1 NMtDS0=    0 NMtDT0=    0
 Symmetry not used in FoFCou.
 Requested convergence on RMS density matrix=1.00D-08 within 300 cycles.
 Requested convergence on MAX density matrix=1.00D-06.
 Requested convergence on             energy=1.00D-06.
 No special actions if energy rises.
 Inv3:  Mode=1 IEnd=    27451875.
 Iteration    1 A*A^-1 deviation from unit magnitude is 4.77D-15 for   3018.
 Iteration    1 A*A^-1 deviation from orthogonality  is 3.72D-15 for   3016    915.
 Iteration    1 A^-1*A deviation from unit magnitude is 4.55D-15 for   3018.
 Iteration    1 A^-1*A deviation from orthogonality  is 3.12D-15 for   3016    915.
 Error on total polarization charges =  0.01246
 SCF Done:  E(RwB97XD) =  -1005.17393047     A.U. after   17 cycles
            NFock= 17  Conv=0.62D-08     -V/T= 2.0043

 **********************************************************************

            Population analysis using the SCF Density.

 **********************************************************************

 Alpha  occ. eigenvalues --  -19.30943 -14.44371 -10.36798 -10.35925 -10.32958
 Alpha  occ. eigenvalues --  -10.31076 -10.30985 -10.30878 -10.30840 -10.30605
 Alpha  occ. eigenvalues --  -10.30435 -10.30384 -10.30170 -10.29982 -10.29598
 Alpha  occ. eigenvalues --  -10.29593 -10.29529 -10.29521 -10.29512 -10.29111
 Alpha  occ. eigenvalues --  -10.28628 -10.27368 -10.24775 -10.23986  -6.84348
 Alpha  occ. eigenvalues --   -1.21363  -1.04875  -1.00420  -0.97976  -0.93842
 Alpha  occ. eigenvalues --   -0.91628  -0.89579  -0.87402  -0.85960  -0.83524
 Alpha  occ. eigenvalues --   -0.81576  -0.80793  -0.80204  -0.76832  -0.76100
 Alpha  occ. eigenvalues --   -0.75652  -0.73552  -0.72849  -0.69865  -0.66449
 Alpha  occ. eigenvalues --   -0.65996  -0.64320  -0.61436  -0.61130  -0.58971
 Alpha  occ. eigenvalues --   -0.57532  -0.57311  -0.56732  -0.55274  -0.54914
 Alpha  occ. eigenvalues --   -0.54833  -0.52986  -0.52365  -0.51892  -0.51398
 Alpha  occ. eigenvalues --   -0.50814  -0.49554  -0.49417  -0.49055  -0.48503
 Alpha  occ. eigenvalues --   -0.47961  -0.47698  -0.47409  -0.46757  -0.46000
 Alpha  occ. eigenvalues --   -0.45861  -0.45463  -0.45250  -0.44820  -0.42523
 Alpha  occ. eigenvalues --   -0.42093  -0.41723  -0.40361  -0.38673  -0.38297
 Alpha  occ. eigenvalues --   -0.37762  -0.34987  -0.34394  -0.31615  -0.28566
 Alpha  occ. eigenvalues --   -0.25471
 Alpha virt. eigenvalues --    0.00009   0.01150   0.03555   0.03817   0.04414
 Alpha virt. eigenvalues --    0.04466   0.04688   0.05491   0.05683   0.05863
 Alpha virt. eigenvalues --    0.06908   0.07016   0.07238   0.07409   0.07973
 Alpha virt. eigenvalues --    0.08859   0.08997   0.09113   0.09362   0.09544
 Alpha virt. eigenvalues --    0.09779   0.10282   0.10662   0.11090   0.11373
 Alpha virt. eigenvalues --    0.11738   0.12312   0.12451   0.12772   0.13251
 Alpha virt. eigenvalues --    0.13330   0.13566   0.14125   0.14661   0.15106
 Alpha virt. eigenvalues --    0.15125   0.15307   0.15810   0.15985   0.16123
 Alpha virt. eigenvalues --    0.16815   0.17049   0.17430   0.17627   0.17871
 Alpha virt. eigenvalues --    0.17973   0.18269   0.18445   0.18498   0.18971
 Alpha virt. eigenvalues --    0.19175   0.19460   0.19626   0.19682   0.19930
 Alpha virt. eigenvalues --    0.20098   0.20343   0.20415   0.20611   0.20997
 Alpha virt. eigenvalues --    0.21116   0.21719   0.21877   0.22067   0.22417
 Alpha virt. eigenvalues --    0.22565   0.23087   0.23180   0.23305   0.23551
 Alpha virt. eigenvalues --    0.23826   0.24163   0.24325   0.24531   0.24791
 Alpha virt. eigenvalues --    0.25028   0.25187   0.25705   0.25781   0.26021
 Alpha virt. eigenvalues --    0.26222   0.26577   0.26853   0.27336   0.27721
 Alpha virt. eigenvalues --    0.27771   0.27854   0.28349   0.28539   0.29107
 Alpha virt. eigenvalues --    0.29455   0.29746   0.29985   0.30303   0.30640
 Alpha virt. eigenvalues --    0.30955   0.31185   0.31327   0.31450   0.31950
 Alpha virt. eigenvalues --    0.32573   0.32816   0.33080   0.33093   0.33304
 Alpha virt. eigenvalues --    0.33532   0.34316   0.34533   0.34794   0.34911
 Alpha virt. eigenvalues --    0.35735   0.36129   0.36371   0.36661   0.36831
 Alpha virt. eigenvalues --    0.36883   0.37197   0.37317   0.37463   0.37672
 Alpha virt. eigenvalues --    0.38128   0.38234   0.38433   0.38687   0.38877
 Alpha virt. eigenvalues --    0.39298   0.39766   0.39931   0.40283   0.40363
 Alpha virt. eigenvalues --    0.40980   0.41050   0.41447   0.41588   0.42065
 Alpha virt. eigenvalues --    0.42509   0.42854   0.43584   0.44230   0.44391
 Alpha virt. eigenvalues --    0.44808   0.45232   0.45873   0.45967   0.46550
 Alpha virt. eigenvalues --    0.46733   0.46906   0.47754   0.48260   0.49230
 Alpha virt. eigenvalues --    0.49496   0.50456   0.51750   0.51969   0.53545
 Alpha virt. eigenvalues --    0.53816   0.54312   0.54864   0.56076   0.56855
 Alpha virt. eigenvalues --    0.57686   0.58170   0.59561   0.60161   0.60323
 Alpha virt. eigenvalues --    0.61005   0.61531   0.61940   0.62668   0.62725
 Alpha virt. eigenvalues --    0.62841   0.63741   0.64294   0.64985   0.65171
 Alpha virt. eigenvalues --    0.65754   0.66582   0.67185   0.67289   0.67653
 Alpha virt. eigenvalues --    0.68035   0.68273   0.68711   0.69327   0.69751
 Alpha virt. eigenvalues --    0.70063   0.70646   0.70811   0.71471   0.71652
 Alpha virt. eigenvalues --    0.71786   0.72220   0.72661   0.72756   0.73492
 Alpha virt. eigenvalues --    0.73753   0.74047   0.74302   0.74884   0.75124
 Alpha virt. eigenvalues --    0.75893   0.76059   0.76307   0.76943   0.77258
 Alpha virt. eigenvalues --    0.77558   0.78283   0.78680   0.78985   0.79689
 Alpha virt. eigenvalues --    0.80634   0.81337   0.81963   0.82287   0.82897
 Alpha virt. eigenvalues --    0.83279   0.83575   0.84176   0.85025   0.85476
 Alpha virt. eigenvalues --    0.86305   0.86500   0.87019   0.87403   0.87684
 Alpha virt. eigenvalues --    0.88110   0.88607   0.88906   0.89358   0.90395
 Alpha virt. eigenvalues --    0.90782   0.91283   0.91829   0.92738   0.93837
 Alpha virt. eigenvalues --    0.94246   0.94333   0.95431   0.96616   0.97002
 Alpha virt. eigenvalues --    0.99216   0.99524   0.99981   1.00448   1.01310
 Alpha virt. eigenvalues --    1.01700   1.01917   1.02667   1.02801   1.03225
 Alpha virt. eigenvalues --    1.03576   1.04321   1.04690   1.04803   1.05101
 Alpha virt. eigenvalues --    1.05631   1.06066   1.07125   1.07586   1.07868
 Alpha virt. eigenvalues --    1.08882   1.08962   1.09451   1.10182   1.11028
 Alpha virt. eigenvalues --    1.11814   1.12763   1.13028   1.13633   1.14613
 Alpha virt. eigenvalues --    1.15956   1.16884   1.17472   1.18182   1.18440
 Alpha virt. eigenvalues --    1.19023   1.19895   1.21043   1.21877   1.22444
 Alpha virt. eigenvalues --    1.22773   1.23658   1.24170   1.25382   1.25638
 Alpha virt. eigenvalues --    1.26760   1.26985   1.27428   1.28665   1.31208
 Alpha virt. eigenvalues --    1.33629   1.34230   1.35294   1.37081   1.38369
 Alpha virt. eigenvalues --    1.40618   1.41525   1.42686   1.43644   1.45069
 Alpha virt. eigenvalues --    1.46040   1.47507   1.47917   1.50256   1.51493
 Alpha virt. eigenvalues --    1.52920   1.53788   1.54560   1.54877   1.55450
 Alpha virt. eigenvalues --    1.55965   1.56407   1.57357   1.57631   1.57849
 Alpha virt. eigenvalues --    1.58324   1.58556   1.58984   1.59496   1.60483
 Alpha virt. eigenvalues --    1.61474   1.61795   1.62595   1.63545   1.64239
 Alpha virt. eigenvalues --    1.64587   1.65879   1.66501   1.67230   1.67694
 Alpha virt. eigenvalues --    1.68230   1.68514   1.69745   1.70646   1.70942
 Alpha virt. eigenvalues --    1.71429   1.72288   1.72529   1.73279   1.74403
 Alpha virt. eigenvalues --    1.75251   1.75486   1.76240   1.76995   1.79176
 Alpha virt. eigenvalues --    1.80053   1.80149   1.80826   1.81383   1.81815
 Alpha virt. eigenvalues --    1.81949   1.82433   1.83108   1.83615   1.84547
 Alpha virt. eigenvalues --    1.85870   1.86404   1.86974   1.87376   1.88520
 Alpha virt. eigenvalues --    1.89364   1.89657   1.91025   1.92008   1.93454
 Alpha virt. eigenvalues --    1.93544   1.94665   1.95359   1.95764   1.95884
 Alpha virt. eigenvalues --    1.97701   1.98297   1.98988   1.99278   2.00166
 Alpha virt. eigenvalues --    2.00653   2.01330   2.02264   2.02588   2.02815
 Alpha virt. eigenvalues --    2.04607   2.05739   2.06221   2.07957   2.08215
 Alpha virt. eigenvalues --    2.08990   2.09824   2.10200   2.11139   2.11985
 Alpha virt. eigenvalues --    2.13503   2.14352   2.14986   2.15781   2.16405
 Alpha virt. eigenvalues --    2.17001   2.17604   2.18702   2.19686   2.20948
 Alpha virt. eigenvalues --    2.22181   2.22670   2.23209   2.23680   2.24741
 Alpha virt. eigenvalues --    2.25261   2.26882   2.28234   2.28505   2.30349
 Alpha virt. eigenvalues --    2.31018   2.31568   2.32572   2.36933   2.37777
 Alpha virt. eigenvalues --    2.38938   2.39903   2.41308   2.42212   2.42984
 Alpha virt. eigenvalues --    2.44608   2.44930   2.46414   2.47521   2.48512
 Alpha virt. eigenvalues --    2.49991   2.51110   2.53382   2.54184   2.54627
 Alpha virt. eigenvalues --    2.55791   2.57317   2.58974   2.59638   2.60874
 Alpha virt. eigenvalues --    2.61728   2.62120   2.63447   2.64610   2.66082
 Alpha virt. eigenvalues --    2.66594   2.67377   2.67754   2.67997   2.68914
 Alpha virt. eigenvalues --    2.69141   2.70371   2.71825   2.72823   2.73187
 Alpha virt. eigenvalues --    2.73945   2.75237   2.75722   2.76291   2.77215
 Alpha virt. eigenvalues --    2.78352   2.79841   2.80197   2.81092   2.82038
 Alpha virt. eigenvalues --    2.82463   2.82969   2.83586   2.83824   2.84925
 Alpha virt. eigenvalues --    2.85058   2.86063   2.86102   2.86992   2.87474
 Alpha virt. eigenvalues --    2.87893   2.89131   2.89578   2.90077   2.90802
 Alpha virt. eigenvalues --    2.90876   2.92234   2.93114   2.93913   2.95103
 Alpha virt. eigenvalues --    2.95612   2.96115   2.96168   2.97745   2.98501
 Alpha virt. eigenvalues --    3.00100   3.01697   3.02908   3.03230   3.04702
 Alpha virt. eigenvalues --    3.06194   3.07291   3.08185   3.11413   3.12255
 Alpha virt. eigenvalues --    3.15500   3.17053   3.18173   3.20915   3.21916
 Alpha virt. eigenvalues --    3.22455   3.23527   3.27209   3.28339   3.30368
 Alpha virt. eigenvalues --    3.32687   3.34651   3.35064   3.36837   3.38398
 Alpha virt. eigenvalues --    3.38676   3.40304   3.45021   3.48006   3.51762
 Alpha virt. eigenvalues --    3.52284   3.53522   3.54483   3.56588   3.58074
 Alpha virt. eigenvalues --    3.60002   3.64077   3.64443   3.65700   3.66616
 Alpha virt. eigenvalues --    3.68367   3.72994   3.73458   3.75727   3.77482
 Alpha virt. eigenvalues --    3.79682   3.82930   3.84814   3.87095   3.89881
 Alpha virt. eigenvalues --    3.90998   3.91543   3.92856   3.94616   3.95402
 Alpha virt. eigenvalues --    3.98947   3.99586   4.04490   4.08343   4.13589
 Alpha virt. eigenvalues --    4.17216   4.19004   4.19507   4.20397   4.24155
 Alpha virt. eigenvalues --    4.32829   4.38399   4.40857   4.46955   4.48691
 Alpha virt. eigenvalues --    4.71945   4.93784   4.95030   4.95656   4.97971
 Alpha virt. eigenvalues --    4.99859   5.15365   5.18361   5.59977   6.17169
 Alpha virt. eigenvalues --   14.82589  23.60306  23.83310  23.93426  24.00105
 Alpha virt. eigenvalues --   24.04781  24.07674  24.08438  24.08682  24.11529
 Alpha virt. eigenvalues --   24.11849  24.12968  24.13876  24.17012  24.18200
 Alpha virt. eigenvalues --   24.18427  24.20831  24.21831  24.22261  24.31671
 Alpha virt. eigenvalues --   24.32085  24.33417  24.34177  35.75416  50.18292
          Condensed to atoms (all electrons):
               1          2          3          4          5          6
     1  C    8.356844  -0.155812  -1.467676  -0.315210   0.114158   0.449404
     2  C   -0.155812   9.383303   1.575224  -1.721467   0.025096  -0.731057
     3  C   -1.467676   1.575224   7.770850   0.476609  -0.073875   0.048307
     4  C   -0.315210  -1.721467   0.476609   9.390052   0.269924   0.506638
     5  C    0.114158   0.025096  -0.073875   0.269924   6.240032   0.356426
     6  C    0.449404  -0.731057   0.048307   0.506638   0.356426   7.982934
     7  H   -0.204346   0.426051   0.061078   0.021379  -0.006300  -0.011713
     8  H    0.016234  -0.052804   0.356123  -0.020221   0.020609   0.014809
     9  C   -0.170572  -0.664863  -0.423165   0.393828   0.183325   0.170611
    10  O   -0.236101   0.010633  -0.019107   0.025150  -0.208394   0.035327
    11  C   -0.064584   0.027905  -0.001362   0.258904   0.148710  -0.286699
    12  C    0.111150  -0.165935  -0.077209  -0.071324  -0.431414  -0.810816
    13  C    0.006412  -0.104179  -0.087236  -0.631691   0.234380  -0.341632
    14  C   -0.008159   0.066243   0.021079  -0.035735   0.144526   0.151509
    15  C    0.029074   0.029223   0.017296  -0.048914  -0.116187   0.069149
    16  C    0.086391   0.053058   0.017014  -0.128366  -0.077507  -0.160099
    17  H    0.000939   0.000313   0.000075   0.000249   0.001264   0.000851
    18  H    0.000713   0.000579   0.000014  -0.001528  -0.005250  -0.007457
    19  B    0.390350  -0.125595   0.018371   0.007137   0.087897   0.093154
    20  N   -0.024859  -0.009549  -0.007213   0.015243  -0.045886  -0.158531
    21  C   -0.219625   0.106042   0.011987  -0.029271  -0.029381   0.000500
    22  H   -0.066364   0.034396   0.013292   0.005243   0.002509  -0.008135
    23  H    0.055485  -0.037960  -0.012241   0.000101  -0.001284   0.005122
    24  H    0.026329  -0.008261  -0.016099  -0.003754  -0.000247   0.011797
    25  C   -0.075015  -0.120746  -0.010051   0.014114  -0.030489   0.027172
    26  H   -0.016818  -0.006271  -0.000283   0.003473   0.005207   0.017672
    27  H   -0.008533   0.024621   0.004703   0.000637   0.001211  -0.004579
    28  H    0.020537   0.024330   0.002150   0.019560  -0.026594  -0.085957
    29  C    0.045074   0.014437   0.005146  -0.011361   0.008568  -0.054976
    30  H    0.000151  -0.000718  -0.000100   0.000774   0.002072   0.017902
    31  H    0.001399   0.001984   0.000158  -0.000428   0.000425  -0.005696
    32  H   -0.020510  -0.010450  -0.002877   0.004496  -0.006413  -0.037722
    33  C   -0.011886  -0.004545  -0.001772   0.002613  -0.008585   0.016265
    34  H   -0.000164  -0.000121   0.000124  -0.000360  -0.000985  -0.000655
    35  H    0.000658   0.000011  -0.000021   0.000119   0.000759  -0.001073
    36  H   -0.000895  -0.000404  -0.000076   0.000146   0.000904   0.001101
    37  C   -0.087455  -0.033945  -0.025947  -0.073449  -0.383097   0.120112
    38  H   -0.000319  -0.000810  -0.000413  -0.002291   0.001987  -0.002741
    39  C   -0.064909  -0.122838  -0.178261  -0.526867  -0.464705  -0.133843
    40  H    0.000272  -0.001190  -0.001937   0.014295  -0.005356   0.000656
    41  C   -0.156243  -0.300136  -0.467919   0.143736   0.610055  -0.042343
    42  C   -0.119023  -0.230347  -0.449371  -1.170709  -0.081347  -0.364032
    43  C   -0.473241  -1.075758  -0.747880  -0.812463  -0.510398  -0.677282
    44  H   -0.002033  -0.000974  -0.013116  -0.068012  -0.009981  -0.000417
    45  H    0.007215   0.028234   0.057454  -0.072544   0.002036  -0.013097
               7          8          9         10         11         12
     1  C   -0.204346   0.016234  -0.170572  -0.236101  -0.064584   0.111150
     2  C    0.426051  -0.052804  -0.664863   0.010633   0.027905  -0.165935
     3  C    0.061078   0.356123  -0.423165  -0.019107  -0.001362  -0.077209
     4  C    0.021379  -0.020221   0.393828   0.025150   0.258904  -0.071324
     5  C   -0.006300   0.020609   0.183325  -0.208394   0.148710  -0.431414
     6  C   -0.011713   0.014809   0.170611   0.035327  -0.286699  -0.810816
     7  H    0.518107  -0.012134  -0.001448  -0.002167  -0.000766  -0.003416
     8  H   -0.012134   0.461546  -0.002051   0.000339   0.002699  -0.002203
     9  C   -0.001448  -0.002051   6.313614  -0.037461   0.241034   0.125962
    10  O   -0.002167   0.000339  -0.037461   8.647216  -0.192757   0.163823
    11  C   -0.000766   0.002699   0.241034  -0.192757   6.385002  -0.100135
    12  C   -0.003416  -0.002203   0.125962   0.163823  -0.100135   7.586895
    13  C   -0.000803  -0.000018   0.139109   0.029014   0.263168   0.352394
    14  C   -0.000603   0.000710  -0.134208  -0.209005   0.448023   0.244301
    15  C    0.000195   0.000175  -0.280867  -0.005126  -0.403954  -0.015084
    16  C    0.000299   0.000188  -0.740734   0.034077  -0.242545  -0.227498
    17  H   -0.000000   0.000003  -0.004966   0.000377   0.015771   0.018981
    18  H    0.000022  -0.000008  -0.005477  -0.004150   0.000899   0.003073
    19  B   -0.026335   0.003261  -0.001830  -0.031122  -0.015524  -0.071959
    20  N    0.000401  -0.000176   0.011620  -0.014690   0.113830  -0.022251
    21  C    0.008321   0.000019  -0.000838   0.008619  -0.002174  -0.032398
    22  H    0.004191  -0.000643   0.000772   0.001688  -0.000242  -0.004476
    23  H   -0.002938  -0.000123  -0.000039   0.001017   0.000031   0.001838
    24  H   -0.004752   0.001677  -0.000318  -0.000013  -0.000341  -0.000760
    25  C    0.003353  -0.001140   0.007641  -0.015215   0.008319   0.091403
    26  H    0.001494  -0.000333   0.001730  -0.002077  -0.000698  -0.002191
    27  H    0.000159  -0.000056  -0.000134   0.002481  -0.000163  -0.009836
    28  H    0.003312  -0.000514   0.006651  -0.002665   0.015155   0.039412
    29  C   -0.000514   0.000139  -0.029100  -0.013611  -0.000498  -0.138857
    30  H   -0.000072   0.000004   0.004302   0.002814  -0.006459   0.023540
    31  H    0.000127  -0.000003  -0.000570  -0.004457  -0.001838  -0.010924
    32  H    0.000125   0.000065   0.010535   0.018370   0.012588   0.008591
    33  C   -0.000002  -0.000023  -0.005847  -0.016468  -0.022390   0.068469
    34  H    0.000004   0.000002  -0.002089  -0.001686  -0.000777  -0.001779
    35  H   -0.000008   0.000001   0.001283   0.001071   0.004283  -0.002404
    36  H   -0.000016   0.000000   0.001954   0.000735  -0.009840   0.012989
    37  C   -0.000602  -0.000053   0.262180   0.013565  -0.210752  -0.360959
    38  H   -0.000016   0.000023  -0.015727  -0.000006   0.007809  -0.012602
    39  C   -0.001020  -0.002054  -0.162350   0.009968  -0.044885  -0.219934
    40  H    0.000033   0.000057   0.020722   0.000530  -0.006308   0.002835
    41  C   -0.003381   0.010786   0.803230  -0.035187   0.586741   0.065197
    42  C    0.004420  -0.004233  -0.184187   0.006404  -0.501267  -0.087556
    43  C    0.022052   0.005420   0.215752   0.024551  -0.581242   0.215439
    44  H   -0.000243   0.000105   0.017518   0.000185  -0.002916  -0.000829
    45  H    0.001421   0.002300  -0.018382   0.000278  -0.001934  -0.000121
              13         14         15         16         17         18
     1  C    0.006412  -0.008159   0.029074   0.086391   0.000939   0.000713
     2  C   -0.104179   0.066243   0.029223   0.053058   0.000313   0.000579
     3  C   -0.087236   0.021079   0.017296   0.017014   0.000075   0.000014
     4  C   -0.631691  -0.035735  -0.048914  -0.128366   0.000249  -0.001528
     5  C    0.234380   0.144526  -0.116187  -0.077507   0.001264  -0.005250
     6  C   -0.341632   0.151509   0.069149  -0.160099   0.000851  -0.007457
     7  H   -0.000803  -0.000603   0.000195   0.000299  -0.000000   0.000022
     8  H   -0.000018   0.000710   0.000175   0.000188   0.000003  -0.000008
     9  C    0.139109  -0.134208  -0.280867  -0.740734  -0.004966  -0.005477
    10  O    0.029014  -0.209005  -0.005126   0.034077   0.000377  -0.004150
    11  C    0.263168   0.448023  -0.403954  -0.242545   0.015771   0.000899
    12  C    0.352394   0.244301  -0.015084  -0.227498   0.018981   0.003073
    13  C   10.629115  -0.024829   0.278315  -1.905706  -0.044785   0.003315
    14  C   -0.024829   9.585936  -1.962734  -0.083716   0.006281  -0.125182
    15  C    0.278315  -1.962734   8.233785   1.221779   0.351484   0.032046
    16  C   -1.905706  -0.083716   1.221779  10.219639  -0.010225   0.433471
    17  H   -0.044785   0.006281   0.351484  -0.010225   0.460141  -0.007818
    18  H    0.003315  -0.125182   0.032046   0.433471  -0.007818   0.480996
    19  B   -0.005223  -0.011672   0.005533   0.006555   0.000005  -0.000177
    20  N    0.088647  -0.412026  -0.019619  -0.451866  -0.006729  -0.016143
    21  C   -0.001452   0.016069   0.000533  -0.000109   0.000026  -0.000128
    22  H   -0.000056   0.002900   0.000027   0.000140   0.000001  -0.000004
    23  H   -0.000029  -0.000926  -0.000047  -0.000328   0.000001  -0.000000
    24  H   -0.000124   0.001919   0.000021   0.000090   0.000000  -0.000014
    25  C    0.008062  -0.040983  -0.004777  -0.006869  -0.000037   0.000408
    26  H    0.000684   0.002308  -0.000140   0.000357  -0.000009   0.000080
    27  H   -0.000978   0.019701   0.000403   0.001425   0.000039  -0.000076
    28  H    0.001014  -0.051860  -0.010397  -0.027601  -0.000234  -0.000059
    29  C   -0.016733  -0.148328   0.007667   0.010245  -0.000549  -0.004629
    30  H   -0.005303   0.049997  -0.005706  -0.032186  -0.000283  -0.002106
    31  H    0.005884  -0.032356   0.010179   0.024087  -0.000232   0.000080
    32  H    0.018247  -0.018817  -0.006487  -0.003828   0.000240   0.001823
    33  C   -0.080858   0.033838  -0.202551  -0.157454   0.002119  -0.001661
    34  H   -0.005492   0.011880  -0.003076   0.045752   0.000115   0.006086
    35  H    0.005968   0.010160   0.011719  -0.014929   0.000733  -0.006783
    36  H    0.000434   0.002947  -0.020354  -0.016328   0.000154  -0.009168
    37  C   -1.384522  -0.968819  -0.069803  -1.016554   0.005635   0.023165
    38  H   -0.037924   0.009677   0.050068   0.012048   0.000615   0.001078
    39  C   -1.686501  -0.348021  -0.031792  -0.055262   0.005442   0.007899
    40  H   -0.066999  -0.007183  -0.004084   0.004674   0.000787  -0.000117
    41  C    0.442110  -0.019936  -0.498867  -0.330489   0.007221  -0.001444
    42  C   -0.540031  -0.007336  -0.248156  -0.157375  -0.004652  -0.000721
    43  C    0.038566  -0.049643  -0.083550  -0.057298  -0.000944  -0.000319
    44  H    0.019211   0.002211  -0.003098  -0.002016  -0.000006  -0.000004
    45  H   -0.001033  -0.000115  -0.000873  -0.000799   0.000027  -0.000008
              19         20         21         22         23         24
     1  C    0.390350  -0.024859  -0.219625  -0.066364   0.055485   0.026329
     2  C   -0.125595  -0.009549   0.106042   0.034396  -0.037960  -0.008261
     3  C    0.018371  -0.007213   0.011987   0.013292  -0.012241  -0.016099
     4  C    0.007137   0.015243  -0.029271   0.005243   0.000101  -0.003754
     5  C    0.087897  -0.045886  -0.029381   0.002509  -0.001284  -0.000247
     6  C    0.093154  -0.158531   0.000500  -0.008135   0.005122   0.011797
     7  H   -0.026335   0.000401   0.008321   0.004191  -0.002938  -0.004752
     8  H    0.003261  -0.000176   0.000019  -0.000643  -0.000123   0.001677
     9  C   -0.001830   0.011620  -0.000838   0.000772  -0.000039  -0.000318
    10  O   -0.031122  -0.014690   0.008619   0.001688   0.001017  -0.000013
    11  C   -0.015524   0.113830  -0.002174  -0.000242   0.000031  -0.000341
    12  C   -0.071959  -0.022251  -0.032398  -0.004476   0.001838  -0.000760
    13  C   -0.005223   0.088647  -0.001452  -0.000056  -0.000029  -0.000124
    14  C   -0.011672  -0.412026   0.016069   0.002900  -0.000926   0.001919
    15  C    0.005533  -0.019619   0.000533   0.000027  -0.000047   0.000021
    16  C    0.006555  -0.451866  -0.000109   0.000140  -0.000328   0.000090
    17  H    0.000005  -0.006729   0.000026   0.000001   0.000001   0.000000
    18  H   -0.000177  -0.016143  -0.000128  -0.000004  -0.000000  -0.000014
    19  B    4.805006  -0.000988   0.262146  -0.114291  -0.144150  -0.070208
    20  N   -0.000988   7.442928  -0.007051  -0.000695   0.000101  -0.000792
    21  C    0.262146  -0.007051   5.389892   0.421840   0.433747   0.385868
    22  H   -0.114291  -0.000695   0.421840   0.538999  -0.009717  -0.024622
    23  H   -0.144150   0.000101   0.433747  -0.009717   0.547550  -0.015850
    24  H   -0.070208  -0.000792   0.385868  -0.024622  -0.015850   0.590531
    25  C    0.238269   0.008499  -0.079457   0.005327   0.014608   0.004179
    26  H   -0.081678  -0.000902  -0.000550   0.004313   0.001060  -0.000690
    27  H   -0.197277  -0.005170   0.017835   0.009165   0.007197  -0.000709
    28  H   -0.110080   0.051924  -0.009077  -0.009193   0.003115  -0.007665
    29  C    0.044027   0.285760  -0.000660  -0.002416  -0.001196  -0.000872
    30  H   -0.000743  -0.104031   0.000719   0.000208  -0.000114   0.000055
    31  H    0.016362  -0.046344  -0.002475  -0.001086  -0.000038  -0.000068
    32  H   -0.071424  -0.040998   0.010446   0.001617   0.002551   0.001978
    33  C   -0.004686   0.328120   0.001076   0.000416   0.000228  -0.000005
    34  H   -0.000990  -0.081889   0.000285   0.000103   0.000064  -0.000017
    35  H   -0.000690  -0.042196   0.000054   0.000020  -0.000010   0.000019
    36  H    0.000527  -0.052981   0.000081   0.000025   0.000008   0.000011
    37  C    0.005872   0.005632  -0.000702  -0.000073  -0.000035   0.000097
    38  H    0.000082   0.000543  -0.000009  -0.000001  -0.000000   0.000002
    39  C    0.000071  -0.002319  -0.000257   0.000029  -0.000013   0.000068
    40  H   -0.000014  -0.000092   0.000011   0.000001   0.000000  -0.000002
    41  C    0.003486   0.031317  -0.003864  -0.000122  -0.000108   0.000410
    42  C   -0.005531   0.007651  -0.000554   0.000198   0.000126  -0.000481
    43  C   -0.026937   0.010541  -0.004980   0.001616   0.000325  -0.005173
    44  H    0.000049  -0.000042  -0.000030  -0.000006   0.000002   0.000017
    45  H    0.000066   0.000048   0.000062   0.000046   0.000011  -0.000096
              25         26         27         28         29         30
     1  C   -0.075015  -0.016818  -0.008533   0.020537   0.045074   0.000151
     2  C   -0.120746  -0.006271   0.024621   0.024330   0.014437  -0.000718
     3  C   -0.010051  -0.000283   0.004703   0.002150   0.005146  -0.000100
     4  C    0.014114   0.003473   0.000637   0.019560  -0.011361   0.000774
     5  C   -0.030489   0.005207   0.001211  -0.026594   0.008568   0.002072
     6  C    0.027172   0.017672  -0.004579  -0.085957  -0.054976   0.017902
     7  H    0.003353   0.001494   0.000159   0.003312  -0.000514  -0.000072
     8  H   -0.001140  -0.000333  -0.000056  -0.000514   0.000139   0.000004
     9  C    0.007641   0.001730  -0.000134   0.006651  -0.029100   0.004302
    10  O   -0.015215  -0.002077   0.002481  -0.002665  -0.013611   0.002814
    11  C    0.008319  -0.000698  -0.000163   0.015155  -0.000498  -0.006459
    12  C    0.091403  -0.002191  -0.009836   0.039412  -0.138857   0.023540
    13  C    0.008062   0.000684  -0.000978   0.001014  -0.016733  -0.005303
    14  C   -0.040983   0.002308   0.019701  -0.051860  -0.148328   0.049997
    15  C   -0.004777  -0.000140   0.000403  -0.010397   0.007667  -0.005706
    16  C   -0.006869   0.000357   0.001425  -0.027601   0.010245  -0.032186
    17  H   -0.000037  -0.000009   0.000039  -0.000234  -0.000549  -0.000283
    18  H    0.000408   0.000080  -0.000076  -0.000059  -0.004629  -0.002106
    19  B    0.238269  -0.081678  -0.197277  -0.110080   0.044027  -0.000743
    20  N    0.008499  -0.000902  -0.005170   0.051924   0.285760  -0.104031
    21  C   -0.079457  -0.000550   0.017835  -0.009077  -0.000660   0.000719
    22  H    0.005327   0.004313   0.009165  -0.009193  -0.002416   0.000208
    23  H    0.014608   0.001060   0.007197   0.003115  -0.001196  -0.000114
    24  H    0.004179  -0.000690  -0.000709  -0.007665  -0.000872   0.000055
    25  C    5.489026   0.387236   0.464119   0.302084  -0.068665  -0.010843
    26  H    0.387236   0.527491  -0.002185  -0.028630  -0.002847  -0.000304
    27  H    0.464119  -0.002185   0.558300  -0.020122  -0.016248   0.000533
    28  H    0.302084  -0.028630  -0.020122   0.639525   0.031994   0.009800
    29  C   -0.068665  -0.002847  -0.016248   0.031994   5.615305   0.433687
    30  H   -0.010843  -0.000304   0.000533   0.009800   0.433687   0.595862
    31  H    0.008754  -0.000434  -0.004803  -0.006635   0.391259  -0.059816
    32  H    0.033514   0.003495   0.006643  -0.020205   0.292628  -0.065732
    33  C    0.026999   0.000633   0.002615  -0.023372  -0.217997  -0.028494
    34  H    0.004251   0.000116   0.001088  -0.008414  -0.013743  -0.008125
    35  H   -0.000780   0.000028   0.000194   0.000421  -0.005554   0.018580
    36  H    0.000733  -0.000129   0.000321  -0.001712   0.011375   0.000861
    37  C    0.000395   0.000300  -0.000315  -0.004788  -0.001091  -0.003050
    38  H   -0.000018  -0.000002  -0.000009   0.000067   0.000323   0.000000
    39  C    0.000939   0.000309   0.000095  -0.002608  -0.004943  -0.000645
    40  H    0.000004   0.000001   0.000003   0.000002  -0.000105  -0.000011
    41  C    0.002371   0.000306  -0.000413   0.001885   0.007901  -0.000931
    42  C    0.000506   0.000170  -0.000061   0.004022   0.000787  -0.000236
    43  C    0.003581   0.000479   0.000316   0.013535  -0.000498  -0.000584
    44  H   -0.000037  -0.000003   0.000000   0.000025  -0.000014   0.000004
    45  H    0.000113   0.000011  -0.000004   0.000089   0.000002  -0.000005
              31         32         33         34         35         36
     1  C    0.001399  -0.020510  -0.011886  -0.000164   0.000658  -0.000895
     2  C    0.001984  -0.010450  -0.004545  -0.000121   0.000011  -0.000404
     3  C    0.000158  -0.002877  -0.001772   0.000124  -0.000021  -0.000076
     4  C   -0.000428   0.004496   0.002613  -0.000360   0.000119   0.000146
     5  C    0.000425  -0.006413  -0.008585  -0.000985   0.000759   0.000904
     6  C   -0.005696  -0.037722   0.016265  -0.000655  -0.001073   0.001101
     7  H    0.000127   0.000125  -0.000002   0.000004  -0.000008  -0.000016
     8  H   -0.000003   0.000065  -0.000023   0.000002   0.000001   0.000000
     9  C   -0.000570   0.010535  -0.005847  -0.002089   0.001283   0.001954
    10  O   -0.004457   0.018370  -0.016468  -0.001686   0.001071   0.000735
    11  C   -0.001838   0.012588  -0.022390  -0.000777   0.004283  -0.009840
    12  C   -0.010924   0.008591   0.068469  -0.001779  -0.002404   0.012989
    13  C    0.005884   0.018247  -0.080858  -0.005492   0.005968   0.000434
    14  C   -0.032356  -0.018817   0.033838   0.011880   0.010160   0.002947
    15  C    0.010179  -0.006487  -0.202551  -0.003076   0.011719  -0.020354
    16  C    0.024087  -0.003828  -0.157454   0.045752  -0.014929  -0.016328
    17  H   -0.000232   0.000240   0.002119   0.000115   0.000733   0.000154
    18  H    0.000080   0.001823  -0.001661   0.006086  -0.006783  -0.009168
    19  B    0.016362  -0.071424  -0.004686  -0.000990  -0.000690   0.000527
    20  N   -0.046344  -0.040998   0.328120  -0.081889  -0.042196  -0.052981
    21  C   -0.002475   0.010446   0.001076   0.000285   0.000054   0.000081
    22  H   -0.001086   0.001617   0.000416   0.000103   0.000020   0.000025
    23  H   -0.000038   0.002551   0.000228   0.000064  -0.000010   0.000008
    24  H   -0.000068   0.001978  -0.000005  -0.000017   0.000019   0.000011
    25  C    0.008754   0.033514   0.026999   0.004251  -0.000780   0.000733
    26  H   -0.000434   0.003495   0.000633   0.000116   0.000028  -0.000129
    27  H   -0.004803   0.006643   0.002615   0.001088   0.000194   0.000321
    28  H   -0.006635  -0.020205  -0.023372  -0.008414   0.000421  -0.001712
    29  C    0.391259   0.292628  -0.217997  -0.013743  -0.005554   0.011375
    30  H   -0.059816  -0.065732  -0.028494  -0.008125   0.018580   0.000861
    31  H    0.563905  -0.010907  -0.012085   0.000934   0.001966  -0.003384
    32  H   -0.010907   0.657411   0.030048   0.007746  -0.004656  -0.001485
    33  C   -0.012085   0.030048   5.462666   0.419514   0.373389   0.441072
    34  H    0.000934   0.007746   0.419514   0.510132  -0.058277  -0.001871
    35  H    0.001966  -0.004656   0.373389  -0.058277   0.605247  -0.046394
    36  H   -0.003384  -0.001485   0.441072  -0.001871  -0.046394   0.514350
    37  C    0.001657   0.004222  -0.030888  -0.000995  -0.000850   0.000296
    38  H    0.000043  -0.000035  -0.000527  -0.000039   0.000007  -0.000018
    39  C   -0.000249   0.003680  -0.002841   0.000175  -0.000393  -0.000432
    40  H   -0.000007   0.000119  -0.000050   0.000004  -0.000003  -0.000011
    41  C    0.001140  -0.001916  -0.002154  -0.000581   0.000385   0.000398
    42  C    0.000284   0.000639   0.000105  -0.000153   0.000066   0.000194
    43  C    0.000297   0.003772   0.000450  -0.000106   0.000040   0.000009
    44  H   -0.000002   0.000031   0.000004  -0.000001   0.000001   0.000003
    45  H    0.000003  -0.000010  -0.000001  -0.000001   0.000000   0.000001
              37         38         39         40         41         42
     1  C   -0.087455  -0.000319  -0.064909   0.000272  -0.156243  -0.119023
     2  C   -0.033945  -0.000810  -0.122838  -0.001190  -0.300136  -0.230347
     3  C   -0.025947  -0.000413  -0.178261  -0.001937  -0.467919  -0.449371
     4  C   -0.073449  -0.002291  -0.526867   0.014295   0.143736  -1.170709
     5  C   -0.383097   0.001987  -0.464705  -0.005356   0.610055  -0.081347
     6  C    0.120112  -0.002741  -0.133843   0.000656  -0.042343  -0.364032
     7  H   -0.000602  -0.000016  -0.001020   0.000033  -0.003381   0.004420
     8  H   -0.000053   0.000023  -0.002054   0.000057   0.010786  -0.004233
     9  C    0.262180  -0.015727  -0.162350   0.020722   0.803230  -0.184187
    10  O    0.013565  -0.000006   0.009968   0.000530  -0.035187   0.006404
    11  C   -0.210752   0.007809  -0.044885  -0.006308   0.586741  -0.501267
    12  C   -0.360959  -0.012602  -0.219934   0.002835   0.065197  -0.087556
    13  C   -1.384522  -0.037924  -1.686501  -0.066999   0.442110  -0.540031
    14  C   -0.968819   0.009677  -0.348021  -0.007183  -0.019936  -0.007336
    15  C   -0.069803   0.050068  -0.031792  -0.004084  -0.498867  -0.248156
    16  C   -1.016554   0.012048  -0.055262   0.004674  -0.330489  -0.157375
    17  H    0.005635   0.000615   0.005442   0.000787   0.007221  -0.004652
    18  H    0.023165   0.001078   0.007899  -0.000117  -0.001444  -0.000721
    19  B    0.005872   0.000082   0.000071  -0.000014   0.003486  -0.005531
    20  N    0.005632   0.000543  -0.002319  -0.000092   0.031317   0.007651
    21  C   -0.000702  -0.000009  -0.000257   0.000011  -0.003864  -0.000554
    22  H   -0.000073  -0.000001   0.000029   0.000001  -0.000122   0.000198
    23  H   -0.000035  -0.000000  -0.000013   0.000000  -0.000108   0.000126
    24  H    0.000097   0.000002   0.000068  -0.000002   0.000410  -0.000481
    25  C    0.000395  -0.000018   0.000939   0.000004   0.002371   0.000506
    26  H    0.000300  -0.000002   0.000309   0.000001   0.000306   0.000170
    27  H   -0.000315  -0.000009   0.000095   0.000003  -0.000413  -0.000061
    28  H   -0.004788   0.000067  -0.002608   0.000002   0.001885   0.004022
    29  C   -0.001091   0.000323  -0.004943  -0.000105   0.007901   0.000787
    30  H   -0.003050   0.000000  -0.000645  -0.000011  -0.000931  -0.000236
    31  H    0.001657   0.000043  -0.000249  -0.000007   0.001140   0.000284
    32  H    0.004222  -0.000035   0.003680   0.000119  -0.001916   0.000639
    33  C   -0.030888  -0.000527  -0.002841  -0.000050  -0.002154   0.000105
    34  H   -0.000995  -0.000039   0.000175   0.000004  -0.000581  -0.000153
    35  H   -0.000850   0.000007  -0.000393  -0.000003   0.000385   0.000066
    36  H    0.000296  -0.000018  -0.000432  -0.000011   0.000398   0.000194
    37  C    9.339090   0.378022   2.295607  -0.044758  -1.314471  -0.001382
    38  H    0.378022   0.463321  -0.037686  -0.005487  -0.007078   0.007824
    39  C    2.295607  -0.037686   8.386894   0.429092  -0.514950  -0.127576
    40  H   -0.044758  -0.005487   0.429092   0.459870  -0.050429   0.048642
    41  C   -1.314471  -0.007078  -0.514950  -0.050429   8.912397  -0.627117
    42  C   -0.001382   0.007824  -0.127576   0.048642  -0.627117   8.306741
    43  C   -0.070404   0.004382  -0.102373   0.011233  -1.410797   2.490404
    44  H    0.025721   0.000036   0.058216   0.004169  -0.049206   0.414224
    45  H    0.001464  -0.000047   0.000807  -0.000158  -0.018743  -0.013596
              43         44         45
     1  C   -0.473241  -0.002033   0.007215
     2  C   -1.075758  -0.000974   0.028234
     3  C   -0.747880  -0.013116   0.057454
     4  C   -0.812463  -0.068012  -0.072544
     5  C   -0.510398  -0.009981   0.002036
     6  C   -0.677282  -0.000417  -0.013097
     7  H    0.022052  -0.000243   0.001421
     8  H    0.005420   0.000105   0.002300
     9  C    0.215752   0.017518  -0.018382
    10  O    0.024551   0.000185   0.000278
    11  C   -0.581242  -0.002916  -0.001934
    12  C    0.215439  -0.000829  -0.000121
    13  C    0.038566   0.019211  -0.001033
    14  C   -0.049643   0.002211  -0.000115
    15  C   -0.083550  -0.003098  -0.000873
    16  C   -0.057298  -0.002016  -0.000799
    17  H   -0.000944  -0.000006   0.000027
    18  H   -0.000319  -0.000004  -0.000008
    19  B   -0.026937   0.000049   0.000066
    20  N    0.010541  -0.000042   0.000048
    21  C   -0.004980  -0.000030   0.000062
    22  H    0.001616  -0.000006   0.000046
    23  H    0.000325   0.000002   0.000011
    24  H   -0.005173   0.000017  -0.000096
    25  C    0.003581  -0.000037   0.000113
    26  H    0.000479  -0.000003   0.000011
    27  H    0.000316   0.000000  -0.000004
    28  H    0.013535   0.000025   0.000089
    29  C   -0.000498  -0.000014   0.000002
    30  H   -0.000584   0.000004  -0.000005
    31  H    0.000297  -0.000002   0.000003
    32  H    0.003772   0.000031  -0.000010
    33  C    0.000450   0.000004  -0.000001
    34  H   -0.000106  -0.000001  -0.000001
    35  H    0.000040   0.000001   0.000000
    36  H    0.000009   0.000003   0.000001
    37  C   -0.070404   0.025721   0.001464
    38  H    0.004382   0.000036  -0.000047
    39  C   -0.102373   0.058216   0.000807
    40  H    0.011233   0.004169  -0.000158
    41  C   -1.410797  -0.049206  -0.018743
    42  C    2.490404   0.414224  -0.013596
    43  C    9.639031  -0.036214   0.393338
    44  H   -0.036214   0.453746  -0.003056
    45  H    0.393338  -0.003056   0.456719
 Mulliken charges:
               1
     1  C    0.251566
     2  C   -0.144946
     3  C   -0.371847
     4  C    0.171543
     5  C    0.061594
     6  C   -0.156864
     7  H    0.207051
     8  H    0.201500
     9  C   -0.046150
    10  O    0.013232
    11  C    0.162181
    12  C   -0.251423
    13  C    0.410089
    14  C   -0.130022
    15  C   -0.302428
    16  C   -0.263599
    17  H    0.201581
    18  H    0.204686
    19  B    0.130896
    20  N    0.173226
    21  C   -0.651134
    22  H    0.193059
    23  H    0.152857
    24  H    0.136864
    25  C   -0.690857
    26  H    0.188221
    27  H    0.147866
    28  H    0.267769
    29  C   -0.450318
    30  H    0.174733
    31  H    0.173912
    32  H    0.188853
    33  C   -0.373496
    34  H    0.184014
    35  H    0.147837
    36  H    0.173871
    37  C   -0.393275
    38  H    0.185847
    39  C   -0.358763
    40  H    0.196288
    41  C    0.227754
    42  C   -0.366377
    43  C   -0.367044
    44  H    0.196780
    45  H    0.192874
 Sum of Mulliken charges =  -0.00000
 Mulliken charges with hydrogens summed into heavy atoms:
               1
     1  C    0.251566
     2  C    0.062105
     3  C   -0.170347
     4  C    0.171543
     5  C    0.061594
     6  C   -0.156864
     9  C   -0.046150
    10  O    0.013232
    11  C    0.162181
    12  C   -0.251423
    13  C    0.410089
    14  C   -0.130022
    15  C   -0.100847
    16  C   -0.058914
    19  B    0.130896
    20  N    0.173226
    21  C   -0.168354
    25  C   -0.087001
    29  C    0.087180
    33  C    0.132226
    37  C   -0.207428
    39  C   -0.162475
    41  C    0.227754
    42  C   -0.169597
    43  C   -0.174171
 Electronic spatial extent (au):  <R**2>=          21030.1345
 Charge=             -0.0000 electrons
 Dipole moment (field-independent basis, Debye):
    X=             -0.9929    Y=              0.6376    Z=             -0.4789  Tot=              1.2734
 Quadrupole moment (field-independent basis, Debye-Ang):
   XX=           -124.1006   YY=           -135.4774   ZZ=           -143.1919
   XY=              1.6950   XZ=             10.4585   YZ=             -8.0660
 Traceless Quadrupole moment (field-independent basis, Debye-Ang):
   XX=             10.1561   YY=             -1.2208   ZZ=             -8.9353
   XY=              1.6950   XZ=             10.4585   YZ=             -8.0660
 Octapole moment (field-independent basis, Debye-Ang**2):
  XXX=           1193.8653  YYY=          -1348.2387  ZZZ=            204.8677  XYY=            479.8702
  XXY=           -446.7159  XXZ=              7.5208  XZZ=            427.8752  YZZ=           -463.1726
  YYZ=             -0.8168  XYZ=             50.9899
 Hexadecapole moment (field-independent basis, Debye-Ang**3):
 XXXX=         -11478.1570 YYYY=         -12923.7189 ZZZZ=          -2944.5879 XXXY=           3671.9707
 XXXZ=          -1024.8238 YYYX=           4101.4206 YYYZ=           1056.8911 ZZZX=          -1380.6708
 ZZZY=           1588.3959 XXYY=          -4391.5818 XXZZ=          -2353.2455 YYZZ=          -2612.3912
 XXYZ=            298.5639 YYXZ=           -207.1980 ZZXY=           1147.1592
 N-N= 2.099355805679D+03 E-N=-6.534222715999D+03  KE= 1.000919213477D+03
 Breneman (CHELPG) radii used.
 Generate Potential Derived Charges using the Breneman model, NDens= 1.
 Grid spacing= 0.300 Box extension= 2.800
 NStep X,Y,Z=   51     51     45   Total possible points=      117045
 Number of Points to Fit=   23793

 **********************************************************************

            Electrostatic Properties Using The SCF Density.

 **********************************************************************

       Atomic Center    1 is at  -2.144572  1.637097  1.204756
       Atomic Center    2 is at  -0.913703  1.832232  1.888124
       Atomic Center    3 is at  -0.094446  2.912998  1.677545
       Atomic Center    4 is at  -0.477794  3.920177  0.766656
       Atomic Center    5 is at  -1.704083  3.778998  0.086491
       Atomic Center    6 is at  -2.503601  2.638250  0.310412
       Atomic Center    7 is at  -0.597151  1.076509  2.598668
       Atomic Center    8 is at   0.844662  3.006048  2.211912
       Atomic Center    9 is at  -2.131827  4.777845 -0.833625
       Atomic Center   10 is at  -3.695396  2.513543 -0.341420
       Atomic Center   11 is at  -3.378571  4.597467 -1.499672
       Atomic Center   12 is at  -4.137777  3.451463 -1.230227
       Atomic Center   13 is at  -3.825930  5.549023 -2.440182
       Atomic Center   14 is at  -5.354808  3.214026 -1.862960
       Atomic Center   15 is at  -5.048069  5.307631 -3.089349
       Atomic Center   16 is at  -5.783635  4.178741 -2.800197
       Atomic Center   17 is at  -5.417639  6.020416 -3.818411
       Atomic Center   18 is at  -6.726722  4.026904 -3.310028
       Atomic Center   19 is at  -2.983428  0.331575  1.464005
       Atomic Center   20 is at  -6.074444  2.034543 -1.589676
       Atomic Center   21 is at  -2.995309 -0.312563  2.902181
       Atomic Center   22 is at  -3.952443 -0.004265  3.351009
       Atomic Center   23 is at  -3.024127 -1.406646  2.872769
       Atomic Center   24 is at  -2.211734  0.010209  3.591122
       Atomic Center   25 is at  -3.785764 -0.414147  0.334474
       Atomic Center   26 is at  -3.087615 -1.168962 -0.062074
       Atomic Center   27 is at  -4.636514 -0.979036  0.730078
       Atomic Center   28 is at  -4.111859  0.198273 -0.505246
       Atomic Center   29 is at  -6.557109  1.888202 -0.220811
       Atomic Center   30 is at  -7.407993  2.557124 -0.015511
       Atomic Center   31 is at  -6.881487  0.856376 -0.066471
       Atomic Center   32 is at  -5.761117  2.099796  0.489892
       Atomic Center   33 is at  -7.075299  1.644273 -2.562922
       Atomic Center   34 is at  -7.380789  0.617027 -2.352089
       Atomic Center   35 is at  -7.979497  2.275279 -2.538098
       Atomic Center   36 is at  -6.655052  1.672534 -3.569809
       Atomic Center   37 is at  -3.003271  6.697664 -2.679045
       Atomic Center   38 is at  -3.344350  7.436615 -3.396547
       Atomic Center   39 is at  -1.821463  6.868310 -2.029592
       Atomic Center   40 is at  -1.213891  7.745959 -2.224506
       Atomic Center   41 is at  -1.348545  5.901669 -1.084536
       Atomic Center   42 is at  -0.108881  6.030276 -0.387750
       Atomic Center   43 is at   0.307977  5.084228  0.498439
       Atomic Center   44 is at   0.506010  6.904330 -0.577178
       Atomic Center   45 is at   1.253025  5.201236  1.017982
   23793 points will be used for fitting atomic charges
 Fitting point charges to electrostatic potential
 Charges from ESP fit, RMS=   0.00453 RRMS=   0.42304:
 ESP charges:
               1
     1  C   -0.408885
     2  C   -0.012131
     3  C   -0.306411
     4  C    0.221536
     5  C   -0.082356
     6  C    0.305725
     7  H    0.096193
     8  H    0.138154
     9  C    0.006488
    10  O   -0.163067
    11  C   -0.054898
    12  C    0.088692
    13  C    0.197108
    14  C    0.116938
    15  C   -0.325142
    16  C   -0.102794
    17  H    0.152136
    18  H    0.131775
    19  B    0.632836
    20  N   -0.213609
    21  C   -0.458516
    22  H    0.074571
    23  H    0.076555
    24  H    0.084992
    25  C   -0.313808
    26  H    0.039688
    27  H    0.065979
    28  H   -0.019074
    29  C    0.091439
    30  H   -0.014070
    31  H    0.044403
    32  H   -0.009749
    33  C   -0.153384
    34  H    0.091243
    35  H    0.064123
    36  H    0.066694
    37  C   -0.213926
    38  H    0.139174
    39  C   -0.221905
    40  H    0.137702
    41  C    0.152258
    42  C   -0.182597
    43  C   -0.228619
    44  H    0.131053
    45  H    0.137487
 Sum of ESP charges =  -0.00000
 ESP charges with hydrogens summed into heavy atoms:
               1
     1  C   -0.408885
     2  C    0.084062
     3  C   -0.168257
     4  C    0.221536
     5  C   -0.082356
     6  C    0.305725
     9  C    0.006488
    10  O   -0.163067
    11  C   -0.054898
    12  C    0.088692
    13  C    0.197108
    14  C    0.116938
    15  C   -0.173006
    16  C    0.028980
    19  B    0.632836
    20  N   -0.213609
    21  C   -0.222398
    25  C   -0.227214
    29  C    0.112022
    33  C    0.068676
    37  C   -0.074752
    39  C   -0.084203
    41  C    0.152258
    42  C   -0.051544
    43  C   -0.091133
 Charge=  -0.00000 Dipole=    -0.9009     0.8469    -0.5055 Tot=     1.3358
 -----------------------------------------------------------------

              Electrostatic Properties (Atomic Units)

 -----------------------------------------------------------------
    Center     Electric         -------- Electric Field --------
               Potential          X             Y             Z
 -----------------------------------------------------------------
    1 Atom    -14.792383
    2 Atom    -14.771401
    3 Atom    -14.779287
    4 Atom    -14.757473
    5 Atom    -14.759364
    6 Atom    -14.698508
    7 Atom     -1.108940
    8 Atom     -1.104368
    9 Atom    -14.757502
   10 Atom    -22.308498
   11 Atom    -14.758851
   12 Atom    -14.705851
   13 Atom    -14.761796
   14 Atom    -14.733258
   15 Atom    -14.773015
   16 Atom    -14.768406
   17 Atom     -1.100410
   18 Atom     -1.095985
   19 Atom    -11.471215
   20 Atom    -18.380459
   21 Atom    -14.810442
   22 Atom     -1.108951
   23 Atom     -1.124115
   24 Atom     -1.128777
   25 Atom    -14.819980
   26 Atom     -1.116109
   27 Atom     -1.131712
   28 Atom     -1.143144
   29 Atom    -14.753772
   30 Atom     -1.121542
   31 Atom     -1.116335
   32 Atom     -1.118827
   33 Atom    -14.747452
   34 Atom     -1.110366
   35 Atom     -1.114169
   36 Atom     -1.109658
   37 Atom    -14.769495
   38 Atom     -1.099217
   39 Atom    -14.769164
   40 Atom     -1.098528
   41 Atom    -14.762129
   42 Atom    -14.765246
   43 Atom    -14.768997
   44 Atom     -1.095996
   45 Atom     -1.098438
 -----------------------------------------------------------------
 Unable to Open any file for archive entry.
 1\1\GINC-IRENE5680\SP\RwB97XD\GenECP\C22H20B1N1O1\PENASFRA\10-Apr-2024
 \0\\# wb97xd/genecp scrf=(solvent=toluene,pcm) nosymm pop=(chelpg) scf
 cyc=300\\me_naphtoxanthene_chelpg\\0,1\C,0,-2.144572,1.637097,1.204756
 \C,0,-0.913703,1.832232,1.888124\C,0,-0.094446,2.912998,1.677545\C,0,-
 0.477794,3.920177,0.766656\C,0,-1.704083,3.778998,0.086491\C,0,-2.5036
 01,2.63825,0.310412\H,0,-0.597151,1.076509,2.598668\H,0,0.844662,3.006
 048,2.211912\C,0,-2.131827,4.777845,-0.833625\O,0,-3.695396,2.513543,-
 0.34142\C,0,-3.378571,4.597467,-1.499672\C,0,-4.137777,3.451463,-1.230
 227\C,0,-3.82593,5.549023,-2.440182\C,0,-5.354808,3.214026,-1.86296\C,
 0,-5.048069,5.307631,-3.089349\C,0,-5.783635,4.178741,-2.800197\H,0,-5
 .417639,6.020416,-3.818411\H,0,-6.726722,4.026904,-3.310028\B,0,-2.983
 428,0.331575,1.464005\N,0,-6.074444,2.034543,-1.589676\C,0,-2.995309,-
 0.312563,2.902181\H,0,-3.952443,-0.004265,3.351009\H,0,-3.024127,-1.40
 6646,2.872769\H,0,-2.211734,0.010209,3.591122\C,0,-3.785764,-0.414147,
 0.334474\H,0,-3.087615,-1.168962,-0.062074\H,0,-4.636514,-0.979036,0.7
 30078\H,0,-4.111859,0.198273,-0.505246\C,0,-6.557109,1.888202,-0.22081
 1\H,0,-7.407993,2.557124,-0.015511\H,0,-6.881487,0.856376,-0.066471\H,
 0,-5.761117,2.099796,0.489892\C,0,-7.075299,1.644273,-2.562922\H,0,-7.
 380789,0.617027,-2.352089\H,0,-7.979497,2.275279,-2.538098\H,0,-6.6550
 52,1.672534,-3.569809\C,0,-3.003271,6.697664,-2.679045\H,0,-3.34435,7.
 436615,-3.396547\C,0,-1.821463,6.86831,-2.029592\H,0,-1.213891,7.74595
 9,-2.224506\C,0,-1.348545,5.901669,-1.084536\C,0,-0.108881,6.030276,-0
 .38775\C,0,0.307977,5.084228,0.498439\H,0,0.50601,6.90433,-0.577178\H,
 0,1.253025,5.201236,1.017982\\Version=AS64L-G16RevC.02\HF=-1005.173930
 5\RMSD=6.235e-09\Dipole=-0.390628,0.2508371,-0.1884258\Quadrupole=7.55
 07829,-0.9076064,-6.6431765,1.2601958,7.7756072,-5.996869\PG=C01 [X(C2
 2H20B1N1O1)]\\@
 The archive entry for this job was punched.


 ART, GLORY, FREEDOM FAIL, BUT NATURE STILL IS FAIR.

                                           -- BYRON
 Job cpu time:       0 days  3 hours 18 minutes 56.6 seconds.
 Elapsed time:       0 days  0 hours  1 minutes 56.9 seconds.
 File lengths (MBytes):  RWF=    403 Int=      0 D2E=      0 Chk=     29 Scr=      1
 Normal termination of Gaussian 16 at Wed Apr 10 15:18:28 2024.
