 Entering Gaussian System, Link 0=/ccc/products/gaussian-16-C.02/system/default/g16/g16
 Input=me_naphthalene_chelpg.gjf
 Output=me_naphthalene_chelpg.log
 Initial command:
 /ccc/products/gaussian-16-C.02/system/default/g16/l1.exe "/ccc/scratch/cont003/gen7343/penasfra/flp/b-n_flp/me_naphtalene/reactant/Gau-2785398.inp" -scrdir="/ccc/scratch/cont003/gen7343/penasfra/flp/b-n_flp/me_naphtalene/reactant/"
 Entering Link 1 = /ccc/products/gaussian-16-C.02/system/default/g16/l1.exe PID=   2785447.
  
 Copyright (c) 1988-2021, Gaussian, Inc.  All Rights Reserved.
  
 This is part of the Gaussian(R) 16 program.  It is based on
 the Gaussian(R) 09 system (copyright 2009, Gaussian, Inc.),
 the Gaussian(R) 03 system (copyright 2003, Gaussian, Inc.),
 the Gaussian(R) 98 system (copyright 1998, Gaussian, Inc.),
 the Gaussian(R) 94 system (copyright 1995, Gaussian, Inc.),
 the Gaussian 92(TM) system (copyright 1992, Gaussian, Inc.),
 the Gaussian 90(TM) system (copyright 1990, Gaussian, Inc.),
 the Gaussian 88(TM) system (copyright 1988, Gaussian, Inc.),
 the Gaussian 86(TM) system (copyright 1986, Carnegie Mellon
 University), and the Gaussian 82(TM) system (copyright 1983,
 Carnegie Mellon University). Gaussian is a federally registered
 trademark of Gaussian, Inc.
  
 This software contains proprietary and confidential information,
 including trade secrets, belonging to Gaussian, Inc.
  
 This software is provided under written license and may be
 used, copied, transmitted, or stored only in accord with that
 written license.
  
 The following legend is applicable only to US Government
 contracts under FAR:
  
                    RESTRICTED RIGHTS LEGEND
  
 Use, reproduction and disclosure by the US Government is
 subject to restrictions as set forth in subparagraphs (a)
 and (c) of the Commercial Computer Software - Restricted
 Rights clause in FAR 52.227-19.
  
 Gaussian, Inc.
 340 Quinnipiac St., Bldg. 40, Wallingford CT 06492
  
  
 ---------------------------------------------------------------
 Warning -- This program may not be used in any manner that
 competes with the business of Gaussian, Inc. or will provide
 assistance to any competitor of Gaussian, Inc.  The licensee
 of this program is prohibited from giving any competitor of
 Gaussian, Inc. access to this program.  By using this program,
 the user acknowledges that Gaussian, Inc. is engaged in the
 business of creating and licensing software in the field of
 computational chemistry and represents and warrants to the
 licensee that it is not a competitor of Gaussian, Inc. and that
 it will not use this program in any manner prohibited above.
 ---------------------------------------------------------------
  

 Cite this work as:
 Gaussian 16, Revision C.02,
 M. J. Frisch, G. W. Trucks, H. B. Schlegel, G. E. Scuseria, 
 M. A. Robb, J. R. Cheeseman, G. Scalmani, V. Barone, 
 G. A. Petersson, H. Nakatsuji, X. Li, M. Caricato, A. V. Marenich, 
 J. Bloino, B. G. Janesko, R. Gomperts, B. Mennucci, H. P. Hratchian, 
 J. V. Ortiz, A. F. Izmaylov, J. L. Sonnenberg, D. Williams-Young, 
 F. Ding, F. Lipparini, F. Egidi, J. Goings, B. Peng, A. Petrone, 
 T. Henderson, D. Ranasinghe, V. G. Zakrzewski, J. Gao, N. Rega, 
 G. Zheng, W. Liang, M. Hada, M. Ehara, K. Toyota, R. Fukuda, 
 J. Hasegawa, M. Ishida, T. Nakajima, Y. Honda, O. Kitao, H. Nakai, 
 T. Vreven, K. Throssell, J. A. Montgomery, Jr., J. E. Peralta, 
 F. Ogliaro, M. J. Bearpark, J. J. Heyd, E. N. Brothers, K. N. Kudin, 
 V. N. Staroverov, T. A. Keith, R. Kobayashi, J. Normand, 
 K. Raghavachari, A. P. Rendell, J. C. Burant, S. S. Iyengar, 
 J. Tomasi, M. Cossi, J. M. Millam, M. Klene, C. Adamo, R. Cammi, 
 J. W. Ochterski, R. L. Martin, K. Morokuma, O. Farkas, 
 J. B. Foresman, and D. J. Fox, Gaussian, Inc., Wallingford CT, 2019.
 
 ******************************************
 Gaussian 16:  AS64L-G16RevC.02  7-Dec-2021
                10-Apr-2024 
 ******************************************
 %nprocshared=128
 Will use up to  128 processors via shared memory.
 %mem=30GB
 %chk=me_naphthalene_chelpg.chk
 ----------------------------------------------------------------------
 # wb97xd/genecp scrf=(solvent=toluene,pcm) nosymm pop=(chelpg) scfcyc=
 300
 ----------------------------------------------------------------------
 1/38=1,172=1/1;
 2/12=2,15=1,17=6,18=5,40=1/2;
 3/5=7,11=2,16=1,17=8,25=1,30=1,70=2201,72=13,74=-58/1,2,3;
 4//1;
 5/5=2,7=300,38=5,53=13/2;
 6/7=2,8=2,9=2,10=2,15=8,20=3,28=1/1,2;
 99/5=1,9=1/99;
 ---------------------
 me_naphthalene_chelpg
 ---------------------
 Symbolic Z-matrix:
 Charge =  0 Multiplicity = 1
 C                    -5.38423  -0.7992    0.41168 
 C                    -4.0451   -0.78494   0.14545 
 C                    -3.34057   0.41954  -0.0177 
 C                    -4.00537   1.65865   0.03489 
 C                    -5.3989    1.6388    0.30736 
 C                    -6.05482   0.44835   0.50338 
 H                    -5.94012  -1.72099   0.53844 
 C                    -1.94878   0.26067  -0.21466 
 C                    -3.21171   2.81376  -0.18226 
 H                    -5.94508   2.57479   0.36541 
 H                    -7.11726   0.45174   0.71949 
 C                    -1.86428   2.67725  -0.41759 
 C                    -1.22454   1.40984  -0.42447 
 H                    -3.67202   3.79608  -0.15955 
 H                    -1.26574   3.56702  -0.58622 
 H                    -0.14974   1.36795  -0.57642 
 B                    -1.54447  -1.27906   0.04188 
 C                    -1.07451  -1.47031   1.58168 
 H                    -0.86902  -2.51285   1.85445 
 H                    -0.13565  -0.91961   1.71421 
 H                    -1.77861  -1.05904   2.3157 
 C                    -0.55186  -1.99507  -1.00662 
 H                     0.4548   -1.59167  -0.84241 
 H                    -0.47253  -3.07919  -0.84924 
 H                    -0.78665  -1.82437  -2.06244 
 N                    -3.17918  -1.9401   -0.10618 
 C                    -3.4343   -3.06649   0.81468 
 H                    -4.41712  -3.50442   0.62361 
 H                    -2.66789  -3.82471   0.65235 
 H                    -3.38265  -2.71588   1.84238 
 C                    -3.42608  -2.39708  -1.49975 
 H                    -2.77291  -3.24037  -1.71899 
 H                    -4.47094  -2.69693  -1.60956 
 H                    -3.20674  -1.58096  -2.1863 
 
                          Input orientation:                          
 ---------------------------------------------------------------------
 Center     Atomic      Atomic             Coordinates (Angstroms)
 Number     Number       Type             X           Y           Z
 ---------------------------------------------------------------------
      1          6           0       -5.384227   -0.799196    0.411683
      2          6           0       -4.045103   -0.784942    0.145446
      3          6           0       -3.340565    0.419543   -0.017699
      4          6           0       -4.005372    1.658648    0.034891
      5          6           0       -5.398901    1.638797    0.307357
      6          6           0       -6.054821    0.448351    0.503382
      7          1           0       -5.940120   -1.720990    0.538437
      8          6           0       -1.948777    0.260670   -0.214655
      9          6           0       -3.211706    2.813760   -0.182263
     10          1           0       -5.945084    2.574785    0.365410
     11          1           0       -7.117257    0.451740    0.719486
     12          6           0       -1.864279    2.677252   -0.417590
     13          6           0       -1.224543    1.409840   -0.424470
     14          1           0       -3.672018    3.796083   -0.159552
     15          1           0       -1.265735    3.567015   -0.586223
     16          1           0       -0.149743    1.367947   -0.576421
     17          5           0       -1.544474   -1.279064    0.041884
     18          6           0       -1.074506   -1.470308    1.581680
     19          1           0       -0.869018   -2.512853    1.854454
     20          1           0       -0.135650   -0.919605    1.714206
     21          1           0       -1.778609   -1.059036    2.315701
     22          6           0       -0.551864   -1.995065   -1.006624
     23          1           0        0.454797   -1.591671   -0.842405
     24          1           0       -0.472531   -3.079189   -0.849236
     25          1           0       -0.786653   -1.824370   -2.062436
     26          7           0       -3.179180   -1.940095   -0.106176
     27          6           0       -3.434296   -3.066485    0.814677
     28          1           0       -4.417119   -3.504419    0.623608
     29          1           0       -2.667892   -3.824710    0.652347
     30          1           0       -3.382645   -2.715882    1.842375
     31          6           0       -3.426077   -2.397082   -1.499754
     32          1           0       -2.772911   -3.240372   -1.718987
     33          1           0       -4.470943   -2.696930   -1.609563
     34          1           0       -3.206735   -1.580964   -2.186300
 ---------------------------------------------------------------------
                    Distance matrix (angstroms):
                    1          2          3          4          5
     1  C    0.000000
     2  C    1.365408   0.000000
     3  C    2.417902   1.404911   0.000000
     4  C    2.843275   2.446412   1.407166   0.000000
     5  C    2.440268   2.780916   2.414330   1.420055   0.000000
     6  C    1.419323   2.384973   2.763972   2.425808   1.373251
     7  H    1.083876   2.149818   3.413042   3.926673   3.410936
     8  C    3.649374   2.370139   1.414605   2.499240   3.751678
     9  C    4.257472   3.708450   2.403323   1.418219   2.530630
    10  H    3.420592   3.866016   3.402258   2.170491   1.085246
    11  H    2.159393   3.361106   3.848101   3.407217   2.128779
    12  C    5.016315   4.130350   2.727010   2.413829   3.754662
    13  C    4.783509   3.619037   2.371434   2.829475   4.244203
    14  H    4.937060   4.606301   3.395733   2.171995   2.802501
    15  H    6.084537   5.215339   3.812443   3.396065   4.647534
    16  H    5.750885   4.508864   3.375350   3.914599   5.329923
    17  B    3.887252   2.551084   2.472804   3.832260   4.841590
    18  C    4.515859   3.370006   3.356274   4.557729   5.476388
    19  H    5.040369   3.999238   4.267604   5.527110   6.336367
    20  H    5.409124   4.214613   3.881275   4.943909   6.018842
    21  H    4.085741   3.149941   3.173430   4.188839   4.941484
    22  C    5.176237   3.872258   3.819052   5.134305   6.198812
    23  H    6.024529   4.677153   4.373773   5.588142   6.784074
    24  H    5.559950   4.360761   4.599804   5.975763   6.918542
    25  H    5.320708   4.070952   3.967186   5.185590   6.235565
    26  N    2.536151   1.465440   2.366805   3.695057   4.231624
    27  C    3.017488   2.454871   3.585251   4.822974   5.124132
    28  H    2.880702   2.786142   4.119189   5.212810   5.245625
    29  H    4.073098   3.375477   4.349153   5.677792   6.117789
    30  H    3.118797   2.654609   3.645893   4.774023   5.038333
    31  C    3.168782   2.385136   3.183893   4.374890   4.842107
    32  H    4.161498   3.335224   4.075732   5.347471   5.899846
    33  H    2.919061   2.630037   3.677525   4.678894   4.830550
    34  H    3.478814   2.602605   2.953433   4.008316   4.625017
                    6          7          8          9         10
     6  C    0.000000
     7  H    2.172654   0.000000
     8  C    4.172577   4.519396   0.000000
     9  C    3.761459   5.341124   2.848562   0.000000
    10  H    2.133729   4.299261   4.654253   2.797930   0.000000
    11  H    1.084197   2.477738   5.255693   4.652485   2.450853
    12  C    4.834959   6.072150   2.426560   1.374617   4.156508
    13  C    5.011682   5.741598   1.374456   2.445091   4.925902
    14  H    4.162276   6.005795   3.933413   1.085063   2.633246
    15  H    5.817959   7.146869   3.396546   2.125413   4.877134
    16  H    6.073020   6.656794   2.143236   3.409011   5.994121
    17  B    4.851822   4.445623   1.612468   4.425055   5.858514
    18  C    5.444953   4.982509   2.643379   5.102191   6.447063
    19  H    6.122636   5.298587   3.624848   6.165161   7.339466
    20  H    6.194674   5.976330   2.898445   5.195838   6.912274
    21  H    4.882899   4.573295   2.858895   4.826193   5.862406
    22  C    6.207490   5.612097   2.768921   5.556899   7.200891
    23  H    6.953270   6.543578   3.098775   5.769476   7.731536
    24  H    6.740555   5.802144   3.706299   6.532594   7.961886
    25  H    6.285084   5.773513   3.018645   5.561311   7.201140
    26  N    3.787552   2.843646   2.523693   4.754575   5.315709
    27  C    4.395239   2.857590   3.786324   5.968309   6.191108
    28  H    4.280294   2.346786   4.579442   6.482425   6.273601
    29  H    5.454588   3.891798   4.237824   6.712793   7.195544
    30  H    4.352677   3.038214   3.891942   5.891122   6.061244
    31  C    4.361117   3.306317   3.301142   5.379090   5.877388
    32  H    5.414475   4.175607   3.898654   6.261515   6.944310
    33  H    4.106823   2.779360   4.129708   5.830143   5.819329
    34  H    4.411814   3.862019   2.976820   4.830092   5.592855
                   11         12         13         14         15
    11  H    0.000000
    12  C    5.817183   0.000000
    13  C    6.078706   1.419733   0.000000
    14  H    4.881292   2.141562   3.428479   0.000000
    15  H    6.756488   1.085528   2.163623   2.454530   0.000000
    16  H    7.145982   2.163132   1.086296   4.298377   2.466056
    17  B    5.874584   3.995726   2.747735   5.506736   4.894558
    18  C    6.399413   4.671518   3.513175   6.124854   5.487349
    19  H    7.008385   5.752384   4.550540   7.191363   6.563466
    20  H    7.184211   4.524389   3.344538   6.185029   5.167091
    21  H    5.773345   4.630126   3.729729   5.769234   5.484939
    22  C    7.216003   4.888757   3.519201   6.632517   5.623440
    23  H    7.996939   4.876708   3.464667   6.820908   5.444070
    24  H    7.686399   5.938004   4.571360   7.614575   6.698535
    25  H    7.279857   4.912372   3.651684   6.598166   5.610326
    26  N    4.680923   4.811012   3.891527   5.757558   5.849784
    27  C    5.094229   6.080621   5.143538   6.935450   7.118181
    28  H    4.790734   6.768614   5.953230   7.380098   7.835821
    29  H    6.171660   6.638228   5.535640   7.729420   7.624808
    30  H    5.024145   6.041421   5.178569   6.818881   7.060750
    31  C    5.163877   5.418409   4.527211   6.341287   6.408749
    32  H    6.200902   6.126787   5.069289   7.263052   7.063657
    33  H    4.726687   6.090758   5.367413   6.700749   7.110386
    34  H    5.278983   4.802388   3.997254   5.765139   5.729696
                   16         17         18         19         20
    16  H    0.000000
    17  B    3.055199   0.000000
    18  C    3.683514   1.621239   0.000000
    19  H    4.635420   2.294316   1.097056   0.000000
    20  H    3.237293   2.216000   1.096489   1.759528   0.000000
    21  H    4.111912   2.296405   1.097129   1.775863   1.755150
    22  C    3.414180   1.611614   2.692182   2.924801   2.955125
    23  H    3.032417   2.208342   2.868743   3.142310   2.708609
    24  H    4.467173   2.276754   2.976613   2.790677   3.368757
    25  H    3.578377   2.302132   3.672574   3.977791   3.937693
    26  N    4.510184   1.769505   2.738469   3.083662   3.690293
    27  C    5.691013   2.713579   2.950370   2.822817   4.037241
    28  H    6.587148   3.680040   4.028470   3.884225   5.118754
    29  H    5.900393   2.848692   2.990944   2.530213   3.997428
    30  H    5.742812   2.947047   2.635701   2.521842   3.712952
    31  C    5.075663   2.677133   3.985478   4.219320   4.831085
    32  H    5.424304   2.907998   4.112433   4.113827   4.912018
    33  H    6.021908   3.647169   4.819172   5.000716   5.744658
    34  H    4.542355   2.796258   4.330857   4.760360   5.008284
                   21         22         23         24         25
    21  H    0.000000
    22  C    3.663181   0.000000
    23  H    3.904540   1.096841   0.000000
    24  H    3.975385   1.098358   1.752910   0.000000
    25  H    4.553877   1.094989   1.756082   1.773442   0.000000
    26  N    2.933147   2.777880   3.724140   3.029129   3.092658
    27  C    3.004035   3.574002   4.477281   3.397178   4.102517
    28  H    3.975527   4.458251   5.435381   4.232005   4.818473
    29  H    3.347615   3.252285   4.119701   2.762275   3.861407
    30  H    2.354168   4.080404   4.816415   3.980644   4.772999
    31  C    4.366030   2.943789   4.017708   3.100303   2.758835
    32  H    4.693141   2.644107   3.728902   2.464588   2.463380
    33  H    5.033791   4.026826   5.106177   4.087972   3.813194
    34  H    4.751838   2.934528   3.900383   3.392387   2.435444
                   26         27         28         29         30
    26  N    0.000000
    27  C    1.477095   0.000000
    28  H    2.124191   1.092810   0.000000
    29  H    2.094886   1.090244   1.778541   0.000000
    30  H    2.107153   1.087085   1.782504   1.776665   0.000000
    31  C    1.487231   2.409307   2.591723   2.691562   3.357580
    32  H    2.111145   2.624332   2.874177   2.444525   3.651050
    33  H    2.121703   2.662358   2.375287   3.104693   3.619479
    34  H    2.111078   3.356251   3.613903   3.658232   4.189177
                   31         32         33         34
    31  C    0.000000
    32  H    1.088957   0.000000
    33  H    1.092571   1.786229   0.000000
    34  H    1.088809   1.777701   1.782197   0.000000
 Symmetry turned off by external request.
 Stoichiometry    C14H18BN
 Framework group  C1[X(C14H18BN)]
 Deg. of freedom    96
 Full point group                 C1      NOp   1
 Rotational constants (GHZ):           0.7708527           0.5737044           0.3874718
 General basis read from cards:  (5D, 7F)
 ======================================================================================================
                                       Pseudopotential Parameters
 ======================================================================================================
  Center     Atomic      Valence      Angular      Power
  Number     Number     Electrons     Momentum     of R      Exponent        Coefficient   SO-Coeffient
 ======================================================================================================
    1          6
                                   No pseudopotential on this center.
    2          6
                                   No pseudopotential on this center.
    3          6
                                   No pseudopotential on this center.
    4          6
                                   No pseudopotential on this center.
    5          6
                                   No pseudopotential on this center.
    6          6
                                   No pseudopotential on this center.
    7          1
                                   No pseudopotential on this center.
    8          6
                                   No pseudopotential on this center.
    9          6
                                   No pseudopotential on this center.
   10          1
                                   No pseudopotential on this center.
   11          1
                                   No pseudopotential on this center.
   12          6
                                   No pseudopotential on this center.
   13          6
                                   No pseudopotential on this center.
   14          1
                                   No pseudopotential on this center.
   15          1
                                   No pseudopotential on this center.
   16          1
                                   No pseudopotential on this center.
   17          5
                                   No pseudopotential on this center.
   18          6
                                   No pseudopotential on this center.
   19          1
                                   No pseudopotential on this center.
   20          1
                                   No pseudopotential on this center.
   21          1
                                   No pseudopotential on this center.
   22          6
                                   No pseudopotential on this center.
   23          1
                                   No pseudopotential on this center.
   24          1
                                   No pseudopotential on this center.
   25          1
                                   No pseudopotential on this center.
   26          7
                                   No pseudopotential on this center.
   27          6
                                   No pseudopotential on this center.
   28          1
                                   No pseudopotential on this center.
   29          1
                                   No pseudopotential on this center.
   30          1
                                   No pseudopotential on this center.
   31          6
                                   No pseudopotential on this center.
   32          1
                                   No pseudopotential on this center.
   33          1
                                   No pseudopotential on this center.
   34          1
                                   No pseudopotential on this center.
 ======================================================================================================
   478 basis functions,   738 primitive gaussians,   494 cartesian basis functions
    57 alpha electrons       57 beta electrons
       nuclear repulsion energy      1096.4301331878 Hartrees.
 NAtoms=   34 NActive=   34 NUniq=   34 SFac= 1.00D+00 NAtFMM=   60 NAOKFM=F Big=F
 Integral buffers will be    131072 words long.
 Raffenetti 2 integral format.
 Two-electron integral symmetry is turned off.
 Nuclear repulsion after empirical dispersion term =     1096.3991508290 Hartrees.
 ------------------------------------------------------------------------------
 Polarizable Continuum Model (PCM)
 =================================
 Model                : PCM.
 Atomic radii         : UFF (Universal Force Field).
 Polarization charges : Total charges.
 Charge compensation  : None.
 Solution method      : On-the-fly selection.
 Cavity type          : Scaled VdW (van der Waals Surface) (Alpha=1.100).
 Cavity algorithm     : GePol (No added spheres)
                        Default sphere list used, NSphG=   34.
                        Lebedev-Laikov grids with approx.  5.0 points / Ang**2.
                        Smoothing algorithm: York/Karplus (Gamma=1.0000).
                        Polarization charges: spherical gaussians, with
                                              point-specific exponents (IZeta= 3).
                        Self-potential: point-specific (ISelfS= 7).
                        Self-field    : sphere-specific E.n sum rule (ISelfD= 2).
 Solvent              : Toluene, Eps=   2.374100 Eps(inf)=   2.238315
 ------------------------------------------------------------------------------
 One-electron integrals computed using PRISM.
   1 Symmetry operations used in ECPInt.
 ECPInt:  NShTT=   17391 NPrTT=   56287 LenC2=   16737 LenP2D=   39721.
 LDataN:  DoStor=T MaxTD1= 4 Len=   56
 Number of processors reduced to  91 by ecpmxn.
 NBasis=   478 RedAO= T EigKep=  1.14D-06  NBF=   478
 NBsUse=   473 1.00D-06 EigRej=  6.83D-07 NBFU=   473
 ExpMin= 3.15D-02 ExpMax= 6.29D+03 ExpMxC= 9.49D+02 IAcc=3 IRadAn=         5 AccDes= 0.00D+00
 Harris functional with IExCor= 4639 and IRadAn=       5 diagonalized for initial guess.
 HarFok:  IExCor= 4639 AccDes= 0.00D+00 IRadAn=         5 IDoV= 1 UseB2=F ITyADJ=14
 ICtDFT=  3500011 ScaDFX=  1.000000  1.000000  1.000000  1.000000
 FoFCou: FMM=F IPFlag=           0 FMFlag=      100000 FMFlg1=           0
         NFxFlg=           0 DoJE=T BraDBF=F KetDBF=T FulRan=T
         wScrn=  0.000000 ICntrl=       500 IOpCl=  0 I1Cent=   200000004 NGrid=           0
         NMat0=    1 NMatS0=      1 NMatT0=    0 NMatD0=    1 NMtDS0=    0 NMtDT0=    0
 Symmetry not used in FoFCou.
 Requested convergence on RMS density matrix=1.00D-08 within 300 cycles.
 Requested convergence on MAX density matrix=1.00D-06.
 Requested convergence on             energy=1.00D-06.
 No special actions if energy rises.
 Inv3:  Mode=1 IEnd=    14918700.
 Iteration    1 A*A^-1 deviation from unit magnitude is 4.11D-15 for   2218.
 Iteration    1 A*A^-1 deviation from orthogonality  is 2.82D-15 for   2225     42.
 Iteration    1 A^-1*A deviation from unit magnitude is 4.11D-15 for   2218.
 Iteration    1 A^-1*A deviation from orthogonality  is 1.63D-15 for   1932    891.
 Error on total polarization charges =  0.01058
 SCF Done:  E(RwB97XD) =  -623.924870483     A.U. after   15 cycles
            NFock= 15  Conv=0.64D-08     -V/T= 2.0046

 **********************************************************************

            Population analysis using the SCF Density.

 **********************************************************************

 Alpha  occ. eigenvalues --  -14.51007 -10.33212 -10.32437 -10.32353 -10.30081
 Alpha  occ. eigenvalues --  -10.29863 -10.29778 -10.29428 -10.28702 -10.28639
 Alpha  occ. eigenvalues --  -10.28363 -10.27720 -10.25977 -10.22901 -10.22727
 Alpha  occ. eigenvalues --   -6.80659  -1.08600  -0.97956  -0.92543  -0.88111
 Alpha  occ. eigenvalues --   -0.84650  -0.83359  -0.82342  -0.78147  -0.77201
 Alpha  occ. eigenvalues --   -0.74487  -0.71937  -0.70952  -0.67535  -0.62720
 Alpha  occ. eigenvalues --   -0.60651  -0.60340  -0.58040  -0.56867  -0.56649
 Alpha  occ. eigenvalues --   -0.52988  -0.52275  -0.51191  -0.50339  -0.49417
 Alpha  occ. eigenvalues --   -0.49134  -0.48410  -0.47759  -0.47626  -0.46294
 Alpha  occ. eigenvalues --   -0.45873  -0.44767  -0.43801  -0.43370  -0.41834
 Alpha  occ. eigenvalues --   -0.41576  -0.38773  -0.37509  -0.35283  -0.35026
 Alpha  occ. eigenvalues --   -0.32142  -0.28323
 Alpha virt. eigenvalues --    0.01774   0.03607   0.04394   0.04702   0.04754
 Alpha virt. eigenvalues --    0.05583   0.06126   0.06246   0.07103   0.07802
 Alpha virt. eigenvalues --    0.08084   0.08199   0.08468   0.08690   0.09718
 Alpha virt. eigenvalues --    0.09891   0.10462   0.10916   0.11070   0.11761
 Alpha virt. eigenvalues --    0.12393   0.12981   0.13594   0.13777   0.14260
 Alpha virt. eigenvalues --    0.14682   0.14992   0.15030   0.15353   0.16030
 Alpha virt. eigenvalues --    0.16388   0.16855   0.17092   0.17447   0.17840
 Alpha virt. eigenvalues --    0.17979   0.18256   0.18402   0.18592   0.18944
 Alpha virt. eigenvalues --    0.19690   0.19854   0.20242   0.20513   0.20763
 Alpha virt. eigenvalues --    0.21043   0.21329   0.21583   0.21995   0.22066
 Alpha virt. eigenvalues --    0.22330   0.22637   0.22770   0.23383   0.23448
 Alpha virt. eigenvalues --    0.23696   0.24021   0.24444   0.24904   0.25420
 Alpha virt. eigenvalues --    0.25814   0.26217   0.26358   0.26945   0.27321
 Alpha virt. eigenvalues --    0.27459   0.27813   0.27938   0.28242   0.28744
 Alpha virt. eigenvalues --    0.29336   0.29561   0.29872   0.30199   0.30742
 Alpha virt. eigenvalues --    0.31245   0.31526   0.31989   0.32290   0.32464
 Alpha virt. eigenvalues --    0.33062   0.33326   0.33546   0.34293   0.34762
 Alpha virt. eigenvalues --    0.34888   0.35764   0.35939   0.36357   0.36702
 Alpha virt. eigenvalues --    0.37140   0.37493   0.37739   0.38388   0.38984
 Alpha virt. eigenvalues --    0.39482   0.39946   0.40609   0.41181   0.41435
 Alpha virt. eigenvalues --    0.42520   0.43100   0.43609   0.44576   0.44711
 Alpha virt. eigenvalues --    0.45829   0.46177   0.46771   0.47697   0.48199
 Alpha virt. eigenvalues --    0.49830   0.50482   0.51078   0.52245   0.54501
 Alpha virt. eigenvalues --    0.55388   0.56122   0.56822   0.58638   0.59370
 Alpha virt. eigenvalues --    0.60888   0.61262   0.61460   0.62869   0.64143
 Alpha virt. eigenvalues --    0.64569   0.65162   0.65781   0.66062   0.66376
 Alpha virt. eigenvalues --    0.66962   0.68017   0.68387   0.68894   0.69236
 Alpha virt. eigenvalues --    0.69538   0.70954   0.72004   0.72327   0.73026
 Alpha virt. eigenvalues --    0.73743   0.74052   0.74801   0.75384   0.76295
 Alpha virt. eigenvalues --    0.76627   0.76847   0.77392   0.77987   0.78050
 Alpha virt. eigenvalues --    0.79711   0.80053   0.80912   0.81374   0.82047
 Alpha virt. eigenvalues --    0.82732   0.83501   0.83592   0.84360   0.85533
 Alpha virt. eigenvalues --    0.85941   0.86263   0.87395   0.87856   0.88441
 Alpha virt. eigenvalues --    0.89122   0.89713   0.90791   0.91130   0.91636
 Alpha virt. eigenvalues --    0.93079   0.93918   0.94901   0.95378   0.95958
 Alpha virt. eigenvalues --    0.96533   0.98187   0.98400   0.99487   0.99943
 Alpha virt. eigenvalues --    1.00799   1.01607   1.03121   1.03330   1.04240
 Alpha virt. eigenvalues --    1.05195   1.06038   1.07270   1.08898   1.10997
 Alpha virt. eigenvalues --    1.11200   1.12677   1.14746   1.15117   1.17349
 Alpha virt. eigenvalues --    1.17654   1.18698   1.19739   1.19975   1.21309
 Alpha virt. eigenvalues --    1.22248   1.23416   1.25466   1.26693   1.27066
 Alpha virt. eigenvalues --    1.30508   1.32970   1.34693   1.36120   1.39187
 Alpha virt. eigenvalues --    1.39567   1.41919   1.42730   1.46904   1.49298
 Alpha virt. eigenvalues --    1.50632   1.51899   1.52518   1.53541   1.56005
 Alpha virt. eigenvalues --    1.57619   1.57816   1.58231   1.58733   1.60248
 Alpha virt. eigenvalues --    1.61841   1.62698   1.63030   1.64220   1.64878
 Alpha virt. eigenvalues --    1.65530   1.66468   1.67388   1.68397   1.69440
 Alpha virt. eigenvalues --    1.69967   1.70990   1.71619   1.73360   1.73696
 Alpha virt. eigenvalues --    1.75118   1.75714   1.76643   1.77722   1.78340
 Alpha virt. eigenvalues --    1.79548   1.79920   1.81607   1.82072   1.82609
 Alpha virt. eigenvalues --    1.84080   1.84607   1.85518   1.86037   1.87323
 Alpha virt. eigenvalues --    1.87660   1.88645   1.90999   1.91281   1.93058
 Alpha virt. eigenvalues --    1.94761   1.96000   1.97075   1.97903   1.98755
 Alpha virt. eigenvalues --    1.99557   2.00531   2.00882   2.02329   2.02629
 Alpha virt. eigenvalues --    2.03102   2.04529   2.05213   2.05671   2.06380
 Alpha virt. eigenvalues --    2.07633   2.09188   2.10191   2.12039   2.13150
 Alpha virt. eigenvalues --    2.13714   2.16124   2.17860   2.18725   2.22413
 Alpha virt. eigenvalues --    2.23130   2.23383   2.25669   2.27455   2.28199
 Alpha virt. eigenvalues --    2.28666   2.29672   2.30185   2.33531   2.35663
 Alpha virt. eigenvalues --    2.40153   2.41111   2.42291   2.44126   2.44845
 Alpha virt. eigenvalues --    2.46609   2.50010   2.51491   2.53239   2.54557
 Alpha virt. eigenvalues --    2.55402   2.56391   2.57190   2.58514   2.59458
 Alpha virt. eigenvalues --    2.60584   2.60900   2.62409   2.62994   2.64623
 Alpha virt. eigenvalues --    2.65568   2.66221   2.67552   2.68201   2.68573
 Alpha virt. eigenvalues --    2.71210   2.72710   2.74785   2.75761   2.77169
 Alpha virt. eigenvalues --    2.79285   2.80039   2.80468   2.81269   2.81390
 Alpha virt. eigenvalues --    2.82571   2.83101   2.83779   2.84286   2.85597
 Alpha virt. eigenvalues --    2.85866   2.86646   2.87215   2.88025   2.88746
 Alpha virt. eigenvalues --    2.90360   2.92658   2.93293   2.94889   2.95911
 Alpha virt. eigenvalues --    2.96809   2.98394   2.98717   2.99933   3.01199
 Alpha virt. eigenvalues --    3.01497   3.03575   3.06766   3.07239   3.09509
 Alpha virt. eigenvalues --    3.13755   3.16559   3.20848   3.22633   3.25022
 Alpha virt. eigenvalues --    3.27464   3.30217   3.35470   3.36210   3.36442
 Alpha virt. eigenvalues --    3.46585   3.50219   3.51652   3.52043   3.56888
 Alpha virt. eigenvalues --    3.63224   3.63936   3.66015   3.71271   3.72094
 Alpha virt. eigenvalues --    3.74861   3.79398   3.84702   3.84828   3.85340
 Alpha virt. eigenvalues --    3.88188   3.90955   3.91743   3.93153   3.93861
 Alpha virt. eigenvalues --    3.96989   3.97657   4.02316   4.06822   4.13749
 Alpha virt. eigenvalues --    4.15107   4.18806   4.25897   4.29637   4.48412
 Alpha virt. eigenvalues --    4.57313   4.86587   4.92801   4.96596   5.00877
 Alpha virt. eigenvalues --   14.86874  23.69873  23.97915  24.05742  24.09431
 Alpha virt. eigenvalues --   24.10194  24.11414  24.13444  24.16894  24.18601
 Alpha virt. eigenvalues --   24.21511  24.26966  24.28167  24.32869  24.33376
 Alpha virt. eigenvalues --   35.70329
          Condensed to atoms (all electrons):
               1          2          3          4          5          6
     1  C    7.053285  -0.995523   0.437246   0.131167  -1.607040   0.982632
     2  C   -0.995523  11.068714   1.266323  -0.420959   2.389596  -1.505415
     3  C    0.437246   1.266323   7.626383   1.551159  -0.632244   0.062704
     4  C    0.131167  -0.420959   1.551159   8.765398  -2.021690  -0.023465
     5  C   -1.607040   2.389596  -0.632244  -2.021690  10.177647  -0.724610
     6  C    0.982632  -1.505415   0.062704  -0.023465  -0.724610   6.793133
     7  H    0.455978  -0.086528   0.014979   0.007545  -0.015332  -0.031312
     8  C    0.004015  -1.921781  -0.902860   0.115558  -0.961641   0.196598
     9  C   -0.494491  -1.202107  -3.022580  -1.882150   0.102164   0.203350
    10  H    0.003669   0.020045   0.018012  -0.085517   0.424760  -0.040071
    11  H   -0.100443   0.050633  -0.013917  -0.002474   0.044485   0.361773
    12  C    0.023585   0.275506   0.670050  -0.200964   0.242379  -0.259794
    13  C    0.335241  -0.743453  -0.648907   0.030864  -0.938281   0.206826
    14  H    0.002571  -0.025941  -0.003221  -0.069562   0.004008   0.028339
    15  H    0.000750  -0.002774   0.002923  -0.009710   0.002663   0.000517
    16  H    0.008284   0.016451   0.065318   0.010629  -0.017835   0.002818
    17  B    0.031940  -0.276422  -0.147024   0.080944  -0.067854   0.128680
    18  C   -0.010155  -0.014738   0.038118  -0.019566   0.033305  -0.028139
    19  H   -0.007421   0.014192   0.005281   0.002311   0.000800  -0.002771
    20  H   -0.002271   0.014893   0.025434   0.000416   0.009471  -0.002064
    21  H    0.012090   0.010023   0.010167  -0.013637   0.004281   0.001571
    22  C   -0.010613  -0.189759  -0.026283  -0.034953  -0.002903   0.000058
    23  H   -0.002839  -0.003288   0.011559   0.001719   0.002814  -0.000621
    24  H   -0.000637   0.000333   0.014271  -0.000293   0.001558  -0.000055
    25  H   -0.009658  -0.022848  -0.015320   0.000280  -0.000458  -0.003221
    26  N   -0.046466  -0.806062  -0.187884  -0.092661  -0.029109   0.041894
    27  C    0.015573  -0.560440  -0.012959  -0.046277  -0.074978  -0.021248
    28  H    0.050994  -0.111611  -0.009976  -0.004913  -0.002290   0.025040
    29  H   -0.016654   0.078104   0.008714   0.004131  -0.001664  -0.009901
    30  H   -0.034699   0.035558   0.010900   0.002377   0.003624  -0.008633
    31  C    0.051115  -0.449531  -0.085626  -0.022814  -0.085382   0.027982
    32  H    0.020855   0.041406   0.004536  -0.003882  -0.003445   0.009226
    33  H    0.002783  -0.088685  -0.017457   0.003593  -0.000456   0.004612
    34  H    0.007187   0.000180   0.012826  -0.008111   0.007134  -0.010037
               7          8          9         10         11         12
     1  C    0.455978   0.004015  -0.494491   0.003669  -0.100443   0.023585
     2  C   -0.086528  -1.921781  -1.202107   0.020045   0.050633   0.275506
     3  C    0.014979  -0.902860  -3.022580   0.018012  -0.013917   0.670050
     4  C    0.007545   0.115558  -1.882150  -0.085517  -0.002474  -0.200964
     5  C   -0.015332  -0.961641   0.102164   0.424760   0.044485   0.242379
     6  C   -0.031312   0.196598   0.203350  -0.040071   0.361773  -0.259794
     7  H    0.482704   0.004546  -0.021275   0.001845  -0.007441   0.004199
     8  C    0.004546   8.188248   1.927479  -0.019013  -0.008696  -1.131113
     9  C   -0.021275   1.927479  10.754114   0.023564  -0.004855  -0.574949
    10  H    0.001845  -0.019013   0.023564   0.452390  -0.006979   0.025544
    11  H   -0.007441  -0.008696  -0.004855  -0.006979   0.446557   0.000846
    12  C    0.004199  -1.131113  -0.574949   0.025544   0.000846   6.581810
    13  C    0.006854   0.208111  -0.163279  -0.011425   0.001659   0.390235
    14  H   -0.000209   0.011071   0.383756   0.002339   0.000431  -0.028936
    15  H    0.000030   0.021000  -0.014320   0.000104  -0.000053   0.401582
    16  H    0.000033  -0.080745  -0.052992  -0.000108   0.000035  -0.039742
    17  B   -0.011646   0.431060   0.113622  -0.003522  -0.000028   0.037737
    18  C    0.005282  -0.189844  -0.009401   0.000736  -0.000706   0.035466
    19  H   -0.000159   0.014854   0.003042   0.000001   0.000043  -0.001085
    20  H    0.000365  -0.012654  -0.010098   0.000082  -0.000008   0.006559
    21  H    0.001568  -0.050055  -0.004417   0.000269   0.000074  -0.005174
    22  C   -0.003274  -0.079409   0.039949  -0.000355   0.000011  -0.041020
    23  H   -0.000077   0.003415  -0.005776  -0.000038  -0.000002  -0.000002
    24  H   -0.000674   0.020547   0.000171  -0.000008   0.000001  -0.008450
    25  H    0.000090   0.000497   0.003291  -0.000046   0.000017   0.003917
    26  N    0.007075   0.031062  -0.021399  -0.001684  -0.002511   0.014811
    27  C   -0.002892   0.140741   0.028482  -0.001861   0.003381  -0.005786
    28  H   -0.005602   0.000349   0.000364  -0.000320   0.001597  -0.001113
    29  H    0.003022   0.007308   0.002085  -0.000033  -0.000094   0.001282
    30  H   -0.001330  -0.007979   0.007337  -0.000008  -0.000443  -0.003412
    31  C    0.001493   0.034190  -0.000402  -0.001185   0.000844   0.010779
    32  H    0.000758  -0.026982  -0.000464   0.000032  -0.000107  -0.001455
    33  H   -0.005539   0.013379   0.006266  -0.000340   0.000137  -0.000323
    34  H    0.001196   0.006346  -0.020557   0.000471  -0.000007   0.011414
              13         14         15         16         17         18
     1  C    0.335241   0.002571   0.000750   0.008284   0.031940  -0.010155
     2  C   -0.743453  -0.025941  -0.002774   0.016451  -0.276422  -0.014738
     3  C   -0.648907  -0.003221   0.002923   0.065318  -0.147024   0.038118
     4  C    0.030864  -0.069562  -0.009710   0.010629   0.080944  -0.019566
     5  C   -0.938281   0.004008   0.002663  -0.017835  -0.067854   0.033305
     6  C    0.206826   0.028339   0.000517   0.002818   0.128680  -0.028139
     7  H    0.006854  -0.000209   0.000030   0.000033  -0.011646   0.005282
     8  C    0.208111   0.011071   0.021000  -0.080745   0.431060  -0.189844
     9  C   -0.163279   0.383756  -0.014320  -0.052992   0.113622  -0.009401
    10  H   -0.011425   0.002339   0.000104  -0.000108  -0.003522   0.000736
    11  H    0.001659   0.000431  -0.000053   0.000035  -0.000028  -0.000706
    12  C    0.390235  -0.028936   0.401582  -0.039742   0.037737   0.035466
    13  C    7.156699   0.029899  -0.071984   0.414721   0.007594   0.006206
    14  H    0.029899   0.456438  -0.007661   0.001549   0.001550   0.000330
    15  H   -0.071984  -0.007661   0.469852  -0.007405  -0.007183   0.000356
    16  H    0.414721   0.001549  -0.007405   0.483641  -0.031896   0.002106
    17  B    0.007594   0.001550  -0.007183  -0.031896   7.266068  -0.247784
    18  C    0.006206   0.000330   0.000356   0.002106  -0.247784   5.777701
    19  H    0.009136   0.000121  -0.000141  -0.000744  -0.196861   0.453139
    20  H   -0.038310  -0.000186   0.000125  -0.000778  -0.124715   0.459804
    21  H    0.012850   0.000050   0.000237   0.001554  -0.332670   0.513433
    22  C    0.001966  -0.000085  -0.000611   0.001228   0.127832  -0.194985
    23  H   -0.027967  -0.000137   0.000066  -0.000537  -0.080472   0.005969
    24  H   -0.032114  -0.000028  -0.000111   0.000481  -0.187371  -0.008410
    25  H    0.028218  -0.000116   0.000032  -0.000663  -0.187717  -0.016953
    26  N   -0.088875  -0.000727   0.001165  -0.002082  -0.011249  -0.034055
    27  C    0.051055   0.000835   0.000305  -0.003522  -0.509210  -0.019592
    28  H   -0.000621   0.000012  -0.000010   0.000168   0.029469  -0.001645
    29  H    0.003056   0.000013   0.000028  -0.000322  -0.036297  -0.014183
    30  H   -0.004877   0.000030  -0.000025  -0.000128  -0.057679   0.015184
    31  C    0.058289   0.000100   0.000383   0.000313  -0.336854   0.008678
    32  H    0.001030   0.000051  -0.000014   0.000178   0.021902  -0.005534
    33  H   -0.003672   0.000036  -0.000025  -0.000160   0.041834   0.003105
    34  H    0.010402  -0.000272   0.000447   0.000331  -0.098053   0.011865
              19         20         21         22         23         24
     1  C   -0.007421  -0.002271   0.012090  -0.010613  -0.002839  -0.000637
     2  C    0.014192   0.014893   0.010023  -0.189759  -0.003288   0.000333
     3  C    0.005281   0.025434   0.010167  -0.026283   0.011559   0.014271
     4  C    0.002311   0.000416  -0.013637  -0.034953   0.001719  -0.000293
     5  C    0.000800   0.009471   0.004281  -0.002903   0.002814   0.001558
     6  C   -0.002771  -0.002064   0.001571   0.000058  -0.000621  -0.000055
     7  H   -0.000159   0.000365   0.001568  -0.003274  -0.000077  -0.000674
     8  C    0.014854  -0.012654  -0.050055  -0.079409   0.003415   0.020547
     9  C    0.003042  -0.010098  -0.004417   0.039949  -0.005776   0.000171
    10  H    0.000001   0.000082   0.000269  -0.000355  -0.000038  -0.000008
    11  H    0.000043  -0.000008   0.000074   0.000011  -0.000002   0.000001
    12  C   -0.001085   0.006559  -0.005174  -0.041020  -0.000002  -0.008450
    13  C    0.009136  -0.038310   0.012850   0.001966  -0.027967  -0.032114
    14  H    0.000121  -0.000186   0.000050  -0.000085  -0.000137  -0.000028
    15  H   -0.000141   0.000125   0.000237  -0.000611   0.000066  -0.000111
    16  H   -0.000744  -0.000778   0.001554   0.001228  -0.000537   0.000481
    17  B   -0.196861  -0.124715  -0.332670   0.127832  -0.080472  -0.187371
    18  C    0.453139   0.459804   0.513433  -0.194985   0.005969  -0.008410
    19  H    0.606674  -0.003020  -0.013206  -0.006483   0.005930   0.001877
    20  H   -0.003020   0.544918   0.006484  -0.037330  -0.001797   0.000675
    21  H   -0.013206   0.006484   0.615410   0.009415  -0.004791   0.000502
    22  C   -0.006483  -0.037330   0.009415   5.548618   0.412555   0.458447
    23  H    0.005930  -0.001797  -0.004791   0.412555   0.536136  -0.006321
    24  H    0.001877   0.000675   0.000502   0.458447  -0.006321   0.586281
    25  H   -0.001782  -0.006437  -0.010024   0.485615  -0.002808  -0.020329
    26  N   -0.041897   0.003260   0.042815  -0.020473   0.001487   0.024136
    27  C    0.022374  -0.013125   0.014531   0.049992  -0.013378  -0.004882
    28  H    0.002086   0.000478  -0.002742   0.006640   0.001081   0.001530
    29  H   -0.000137  -0.003654   0.000423  -0.002415  -0.000988  -0.006267
    30  H   -0.005939  -0.000762   0.006173   0.006773  -0.001497   0.002207
    31  C   -0.003092  -0.002682  -0.001990   0.059014   0.003043   0.005646
    32  H    0.000247  -0.000405  -0.000714  -0.006206  -0.001098  -0.007848
    33  H    0.000312   0.000751  -0.000725   0.005751   0.000870  -0.002239
    34  H   -0.000917  -0.001994   0.002657  -0.013774  -0.002144   0.002132
              25         26         27         28         29         30
     1  C   -0.009658  -0.046466   0.015573   0.050994  -0.016654  -0.034699
     2  C   -0.022848  -0.806062  -0.560440  -0.111611   0.078104   0.035558
     3  C   -0.015320  -0.187884  -0.012959  -0.009976   0.008714   0.010900
     4  C    0.000280  -0.092661  -0.046277  -0.004913   0.004131   0.002377
     5  C   -0.000458  -0.029109  -0.074978  -0.002290  -0.001664   0.003624
     6  C   -0.003221   0.041894  -0.021248   0.025040  -0.009901  -0.008633
     7  H    0.000090   0.007075  -0.002892  -0.005602   0.003022  -0.001330
     8  C    0.000497   0.031062   0.140741   0.000349   0.007308  -0.007979
     9  C    0.003291  -0.021399   0.028482   0.000364   0.002085   0.007337
    10  H   -0.000046  -0.001684  -0.001861  -0.000320  -0.000033  -0.000008
    11  H    0.000017  -0.002511   0.003381   0.001597  -0.000094  -0.000443
    12  C    0.003917   0.014811  -0.005786  -0.001113   0.001282  -0.003412
    13  C    0.028218  -0.088875   0.051055  -0.000621   0.003056  -0.004877
    14  H   -0.000116  -0.000727   0.000835   0.000012   0.000013   0.000030
    15  H    0.000032   0.001165   0.000305  -0.000010   0.000028  -0.000025
    16  H   -0.000663  -0.002082  -0.003522   0.000168  -0.000322  -0.000128
    17  B   -0.187717  -0.011249  -0.509210   0.029469  -0.036297  -0.057679
    18  C   -0.016953  -0.034055  -0.019592  -0.001645  -0.014183   0.015184
    19  H   -0.001782  -0.041897   0.022374   0.002086  -0.000137  -0.005939
    20  H   -0.006437   0.003260  -0.013125   0.000478  -0.003654  -0.000762
    21  H   -0.010024   0.042815   0.014531  -0.002742   0.000423   0.006173
    22  C    0.485615  -0.020473   0.049992   0.006640  -0.002415   0.006773
    23  H   -0.002808   0.001487  -0.013378   0.001081  -0.000988  -0.001497
    24  H   -0.020329   0.024136  -0.004882   0.001530  -0.006267   0.002207
    25  H    0.618001  -0.043762   0.005897   0.000696   0.004397  -0.000722
    26  N   -0.043762   7.752879   0.382122  -0.011712  -0.070735  -0.021357
    27  C    0.005897   0.382122   5.802004   0.397934   0.424589   0.409549
    28  H    0.000696  -0.011712   0.397934   0.529898  -0.027438  -0.034710
    29  H    0.004397  -0.070735   0.424589  -0.027438   0.474165  -0.013644
    30  H   -0.000722  -0.021357   0.409549  -0.034710  -0.013644   0.460733
    31  C    0.036007   0.360239  -0.182317  -0.002390  -0.033224   0.007683
    32  H   -0.006368  -0.009574  -0.026247  -0.000842  -0.014477  -0.000461
    33  H    0.001743   0.007423  -0.025701  -0.000105  -0.003121   0.001648
    34  H    0.000739  -0.030815   0.031155  -0.000188   0.004987  -0.001771
              31         32         33         34
     1  C    0.051115   0.020855   0.002783   0.007187
     2  C   -0.449531   0.041406  -0.088685   0.000180
     3  C   -0.085626   0.004536  -0.017457   0.012826
     4  C   -0.022814  -0.003882   0.003593  -0.008111
     5  C   -0.085382  -0.003445  -0.000456   0.007134
     6  C    0.027982   0.009226   0.004612  -0.010037
     7  H    0.001493   0.000758  -0.005539   0.001196
     8  C    0.034190  -0.026982   0.013379   0.006346
     9  C   -0.000402  -0.000464   0.006266  -0.020557
    10  H   -0.001185   0.000032  -0.000340   0.000471
    11  H    0.000844  -0.000107   0.000137  -0.000007
    12  C    0.010779  -0.001455  -0.000323   0.011414
    13  C    0.058289   0.001030  -0.003672   0.010402
    14  H    0.000100   0.000051   0.000036  -0.000272
    15  H    0.000383  -0.000014  -0.000025   0.000447
    16  H    0.000313   0.000178  -0.000160   0.000331
    17  B   -0.336854   0.021902   0.041834  -0.098053
    18  C    0.008678  -0.005534   0.003105   0.011865
    19  H   -0.003092   0.000247   0.000312  -0.000917
    20  H   -0.002682  -0.000405   0.000751  -0.001994
    21  H   -0.001990  -0.000714  -0.000725   0.002657
    22  C    0.059014  -0.006206   0.005751  -0.013774
    23  H    0.003043  -0.001098   0.000870  -0.002144
    24  H    0.005646  -0.007848  -0.002239   0.002132
    25  H    0.036007  -0.006368   0.001743   0.000739
    26  N    0.360239  -0.009574   0.007423  -0.030815
    27  C   -0.182317  -0.026247  -0.025701   0.031155
    28  H   -0.002390  -0.000842  -0.000105  -0.000188
    29  H   -0.033224  -0.014477  -0.003121   0.004987
    30  H    0.007683  -0.000461   0.001648  -0.001771
    31  C    5.710788   0.358113   0.413854   0.431701
    32  H    0.358113   0.483936  -0.027521  -0.019532
    33  H    0.413854  -0.027521   0.488099  -0.027612
    34  H    0.431701  -0.019532  -0.027612   0.458216
 Mulliken charges:
               1
     1  C   -0.292048
     2  C    0.145907
     3  C   -0.130645
     4  C    0.255504
     5  C   -0.263479
     6  C   -0.406396
     7  H    0.193728
     8  C    0.012399
     9  C   -0.093525
    10  H    0.198649
    11  H    0.236240
    12  C   -0.434382
    13  C   -0.197147
    14  H    0.213550
    15  H    0.219462
    16  H    0.229821
    17  B   -0.367726
    18  C   -0.555091
    19  H    0.143235
    20  H    0.188572
    21  H    0.173566
    22  C   -0.542935
    23  H    0.169938
    24  H    0.165241
    25  H    0.159794
    26  N   -0.095281
    27  C   -0.256106
    28  H    0.169891
    29  H    0.238945
    30  H    0.230299
    31  C   -0.372765
    32  H    0.220905
    33  H    0.207487
    34  H    0.234395
 Sum of Mulliken charges =  -0.00000
 Mulliken charges with hydrogens summed into heavy atoms:
               1
     1  C   -0.098320
     2  C    0.145907
     3  C   -0.130645
     4  C    0.255504
     5  C   -0.064830
     6  C   -0.170156
     8  C    0.012399
     9  C    0.120025
    12  C   -0.214920
    13  C    0.032673
    17  B   -0.367726
    18  C   -0.049718
    22  C   -0.047962
    26  N   -0.095281
    27  C    0.383028
    31  C    0.290022
 Electronic spatial extent (au):  <R**2>=           6968.7448
 Charge=              0.0000 electrons
 Dipole moment (field-independent basis, Debye):
    X=             -3.6053    Y=             -2.4229    Z=             -0.5883  Tot=              4.3834
 Quadrupole moment (field-independent basis, Debye-Ang):
   XX=            -74.1261   YY=            -83.5357   ZZ=           -102.1110
   XY=             13.9558   XZ=             -0.1750   YZ=              0.4315
 Traceless Quadrupole moment (field-independent basis, Debye-Ang):
   XX=             12.4648   YY=              3.0552   ZZ=            -15.5200
   XY=             13.9558   XZ=             -0.1750   YZ=              0.4315
 Octapole moment (field-independent basis, Debye-Ang**2):
  XXX=            742.4153  YYY=             66.1754  ZZZ=             -7.5209  XYY=            233.5626
  XXY=            -20.2556  XXZ=             11.7620  XZZ=            303.5591  YZZ=             17.3277
  YYZ=             -1.2328  XYZ=             -4.4808
 Hexadecapole moment (field-independent basis, Debye-Ang**3):
 XXXX=          -6219.9286 YYYY=          -2010.3273 ZZZZ=           -518.5518 XXXY=             57.2393
 XXXZ=            -41.6595 YYYX=            -36.5166 YYYZ=              2.7750 ZZZX=             95.9605
 ZZZY=             31.7200 XXYY=          -1295.8327 XXZZ=          -1324.2933 YYZZ=           -465.7176
 XXYZ=             21.7781 YYXZ=             20.8692 ZZXY=             12.7285
 N-N= 1.096399150829D+03 E-N=-3.639799575262D+03  KE= 6.210637251887D+02
 Breneman (CHELPG) radii used.
 Generate Potential Derived Charges using the Breneman model, NDens= 1.
 Grid spacing= 0.300 Box extension= 2.800
 NStep X,Y,Z=   45     46     35   Total possible points=       72450
 Number of Points to Fit=   18185

 **********************************************************************

            Electrostatic Properties Using The SCF Density.

 **********************************************************************

       Atomic Center    1 is at  -5.384227 -0.799196  0.411683
       Atomic Center    2 is at  -4.045103 -0.784942  0.145446
       Atomic Center    3 is at  -3.340565  0.419543 -0.017699
       Atomic Center    4 is at  -4.005372  1.658648  0.034891
       Atomic Center    5 is at  -5.398901  1.638797  0.307357
       Atomic Center    6 is at  -6.054821  0.448351  0.503382
       Atomic Center    7 is at  -5.940120 -1.720990  0.538437
       Atomic Center    8 is at  -1.948777  0.260670 -0.214655
       Atomic Center    9 is at  -3.211706  2.813760 -0.182263
       Atomic Center   10 is at  -5.945084  2.574785  0.365410
       Atomic Center   11 is at  -7.117257  0.451740  0.719486
       Atomic Center   12 is at  -1.864279  2.677252 -0.417590
       Atomic Center   13 is at  -1.224543  1.409840 -0.424470
       Atomic Center   14 is at  -3.672018  3.796083 -0.159552
       Atomic Center   15 is at  -1.265735  3.567015 -0.586223
       Atomic Center   16 is at  -0.149743  1.367947 -0.576421
       Atomic Center   17 is at  -1.544474 -1.279064  0.041884
       Atomic Center   18 is at  -1.074506 -1.470308  1.581680
       Atomic Center   19 is at  -0.869018 -2.512853  1.854454
       Atomic Center   20 is at  -0.135650 -0.919605  1.714206
       Atomic Center   21 is at  -1.778609 -1.059036  2.315701
       Atomic Center   22 is at  -0.551864 -1.995065 -1.006624
       Atomic Center   23 is at   0.454797 -1.591671 -0.842405
       Atomic Center   24 is at  -0.472531 -3.079189 -0.849236
       Atomic Center   25 is at  -0.786653 -1.824370 -2.062436
       Atomic Center   26 is at  -3.179180 -1.940095 -0.106176
       Atomic Center   27 is at  -3.434296 -3.066485  0.814677
       Atomic Center   28 is at  -4.417119 -3.504419  0.623608
       Atomic Center   29 is at  -2.667892 -3.824710  0.652347
       Atomic Center   30 is at  -3.382645 -2.715882  1.842375
       Atomic Center   31 is at  -3.426077 -2.397082 -1.499754
       Atomic Center   32 is at  -2.772911 -3.240372 -1.718987
       Atomic Center   33 is at  -4.470943 -2.696930 -1.609563
       Atomic Center   34 is at  -3.206735 -1.580964 -2.186300
   18185 points will be used for fitting atomic charges
 Fitting point charges to electrostatic potential
 Charges from ESP fit, RMS=   0.00387 RRMS=   0.24652:
 ESP charges:
               1
     1  C   -0.200375
     2  C    0.153261
     3  C   -0.008932
     4  C    0.259364
     5  C   -0.294697
     6  C   -0.092973
     7  H    0.145954
     8  C   -0.158176
     9  C   -0.317467
    10  H    0.151830
    11  H    0.113901
    12  C   -0.023528
    13  C   -0.168258
    14  H    0.136758
    15  H    0.087719
    16  H    0.098368
    17  B    0.606242
    18  C   -0.296551
    19  H    0.024809
    20  H    0.021645
    21  H   -0.019523
    22  C   -0.588452
    23  H    0.102080
    24  H    0.086908
    25  H    0.072239
    26  N   -0.119021
    27  C   -0.275843
    28  H    0.116284
    29  H    0.132605
    30  H    0.128289
    31  C   -0.119463
    32  H    0.120559
    33  H    0.074159
    34  H    0.050285
 Sum of ESP charges =  -0.00000
 ESP charges with hydrogens summed into heavy atoms:
               1
     1  C   -0.054421
     2  C    0.153261
     3  C   -0.008932
     4  C    0.259364
     5  C   -0.142867
     6  C    0.020929
     8  C   -0.158176
     9  C   -0.180708
    12  C    0.064190
    13  C   -0.069890
    17  B    0.606242
    18  C   -0.269619
    22  C   -0.327225
    26  N   -0.119021
    27  C    0.101336
    31  C    0.125540
 Charge=  -0.00000 Dipole=    -3.6228    -2.3739    -0.6028 Tot=     4.3730
 -----------------------------------------------------------------

              Electrostatic Properties (Atomic Units)

 -----------------------------------------------------------------
    Center     Electric         -------- Electric Field --------
               Potential          X             Y             Z
 -----------------------------------------------------------------
    1 Atom    -14.757497
    2 Atom    -14.729924
    3 Atom    -14.781759
    4 Atom    -14.768936
    5 Atom    -14.769940
    6 Atom    -14.763340
    7 Atom     -1.078635
    8 Atom    -14.811705
    9 Atom    -14.784041
   10 Atom     -1.101182
   11 Atom     -1.097225
   12 Atom    -14.783182
   13 Atom    -14.792538
   14 Atom     -1.111180
   15 Atom     -1.117245
   16 Atom     -1.128302
   17 Atom    -11.499745
   18 Atom    -14.835758
   19 Atom     -1.152968
   20 Atom     -1.155127
   21 Atom     -1.154379
   22 Atom    -14.832241
   23 Atom     -1.150187
   24 Atom     -1.146486
   25 Atom     -1.152255
   26 Atom    -18.312667
   27 Atom    -14.725104
   28 Atom     -1.081962
   29 Atom     -1.085814
   30 Atom     -1.090260
   31 Atom    -14.727549
   32 Atom     -1.088391
   33 Atom     -1.086469
   34 Atom     -1.092674
 -----------------------------------------------------------------
 Unable to Open any file for archive entry.
 1\1\GINC-IRENE5570\SP\RwB97XD\GenECP\C14H18B1N1\PENASFRA\10-Apr-2024\0
 \\# wb97xd/genecp scrf=(solvent=toluene,pcm) nosymm pop=(chelpg) scfcy
 c=300\\me_naphthalene_chelpg\\0,1\C,0,-5.384227,-0.799196,0.411683\C,0
 ,-4.045103,-0.784942,0.145446\C,0,-3.340565,0.419543,-0.017699\C,0,-4.
 005372,1.658648,0.034891\C,0,-5.398901,1.638797,0.307357\C,0,-6.054821
 ,0.448351,0.503382\H,0,-5.94012,-1.72099,0.538437\C,0,-1.948777,0.2606
 7,-0.214655\C,0,-3.211706,2.81376,-0.182263\H,0,-5.945084,2.574785,0.3
 6541\H,0,-7.117257,0.45174,0.719486\C,0,-1.864279,2.677252,-0.41759\C,
 0,-1.224543,1.40984,-0.42447\H,0,-3.672018,3.796083,-0.159552\H,0,-1.2
 65735,3.567015,-0.586223\H,0,-0.149743,1.367947,-0.576421\B,0,-1.54447
 4,-1.279064,0.041884\C,0,-1.074506,-1.470308,1.58168\H,0,-0.869018,-2.
 512853,1.854454\H,0,-0.13565,-0.919605,1.714206\H,0,-1.778609,-1.05903
 6,2.315701\C,0,-0.551864,-1.995065,-1.006624\H,0,0.454797,-1.591671,-0
 .842405\H,0,-0.472531,-3.079189,-0.849236\H,0,-0.786653,-1.82437,-2.06
 2436\N,0,-3.17918,-1.940095,-0.106176\C,0,-3.434296,-3.066485,0.814677
 \H,0,-4.417119,-3.504419,0.623608\H,0,-2.667892,-3.82471,0.652347\H,0,
 -3.382645,-2.715882,1.842375\C,0,-3.426077,-2.397082,-1.499754\H,0,-2.
 772911,-3.240372,-1.718987\H,0,-4.470943,-2.69693,-1.609563\H,0,-3.206
 735,-1.580964,-2.1863\\Version=AS64L-G16RevC.02\HF=-623.9248705\RMSD=6
 .404e-09\Dipole=-1.4184252,-0.9532511,-0.2314355\Quadrupole=9.2672702,
 2.2714891,-11.5387593,10.3757974,-0.1301296,0.3208082\PG=C01 [X(C14H18
 B1N1)]\\@
 The archive entry for this job was punched.


 WE SHOULD BE CAREFUL TO GET OUT OF AN EXPERIENCE ONLY THE WISDOM
 THAT IS IN IT -- AND STOP THERE;
 LEST WE BE LIKE THE CAT THAT SITS DOWN ON A HOT STOVE-LID.
 SHE WILL NEVER SIT DOWN ON A HOT STOVE LID AGAIN;
 BUT ALSO SHE WILL NEVER SIT DOWN ON A COLD ONE ANY MORE.

                                                     -- MARK TWAIN
 Job cpu time:       0 days  1 hours 19 minutes 18.8 seconds.
 Elapsed time:       0 days  0 hours  0 minutes 47.8 seconds.
 File lengths (MBytes):  RWF=    205 Int=      0 D2E=      0 Chk=     15 Scr=      1
 Normal termination of Gaussian 16 at Wed Apr 10 15:26:30 2024.
