 Entering Gaussian System, Link 0=/ccc/products/gaussian-16-C.02/system/default/g16/g16
 Input=me_phquinolinamine_chelpg.gjf
 Output=me_phquinolinamine_chelpg.log
 Initial command:
 /ccc/products/gaussian-16-C.02/system/default/g16/l1.exe "/ccc/scratch/cont003/gen7343/penasfra/flp/b-n_flp/me_phquinolinamine/Reactant/Gau-585969.inp" -scrdir="/ccc/scratch/cont003/gen7343/penasfra/flp/b-n_flp/me_phquinolinamine/Reactant/"
 Entering Link 1 = /ccc/products/gaussian-16-C.02/system/default/g16/l1.exe PID=    586018.
  
 Copyright (c) 1988-2021, Gaussian, Inc.  All Rights Reserved.
  
 This is part of the Gaussian(R) 16 program.  It is based on
 the Gaussian(R) 09 system (copyright 2009, Gaussian, Inc.),
 the Gaussian(R) 03 system (copyright 2003, Gaussian, Inc.),
 the Gaussian(R) 98 system (copyright 1998, Gaussian, Inc.),
 the Gaussian(R) 94 system (copyright 1995, Gaussian, Inc.),
 the Gaussian 92(TM) system (copyright 1992, Gaussian, Inc.),
 the Gaussian 90(TM) system (copyright 1990, Gaussian, Inc.),
 the Gaussian 88(TM) system (copyright 1988, Gaussian, Inc.),
 the Gaussian 86(TM) system (copyright 1986, Carnegie Mellon
 University), and the Gaussian 82(TM) system (copyright 1983,
 Carnegie Mellon University). Gaussian is a federally registered
 trademark of Gaussian, Inc.
  
 This software contains proprietary and confidential information,
 including trade secrets, belonging to Gaussian, Inc.
  
 This software is provided under written license and may be
 used, copied, transmitted, or stored only in accord with that
 written license.
  
 The following legend is applicable only to US Government
 contracts under FAR:
  
                    RESTRICTED RIGHTS LEGEND
  
 Use, reproduction and disclosure by the US Government is
 subject to restrictions as set forth in subparagraphs (a)
 and (c) of the Commercial Computer Software - Restricted
 Rights clause in FAR 52.227-19.
  
 Gaussian, Inc.
 340 Quinnipiac St., Bldg. 40, Wallingford CT 06492
  
  
 ---------------------------------------------------------------
 Warning -- This program may not be used in any manner that
 competes with the business of Gaussian, Inc. or will provide
 assistance to any competitor of Gaussian, Inc.  The licensee
 of this program is prohibited from giving any competitor of
 Gaussian, Inc. access to this program.  By using this program,
 the user acknowledges that Gaussian, Inc. is engaged in the
 business of creating and licensing software in the field of
 computational chemistry and represents and warrants to the
 licensee that it is not a competitor of Gaussian, Inc. and that
 it will not use this program in any manner prohibited above.
 ---------------------------------------------------------------
  

 Cite this work as:
 Gaussian 16, Revision C.02,
 M. J. Frisch, G. W. Trucks, H. B. Schlegel, G. E. Scuseria, 
 M. A. Robb, J. R. Cheeseman, G. Scalmani, V. Barone, 
 G. A. Petersson, H. Nakatsuji, X. Li, M. Caricato, A. V. Marenich, 
 J. Bloino, B. G. Janesko, R. Gomperts, B. Mennucci, H. P. Hratchian, 
 J. V. Ortiz, A. F. Izmaylov, J. L. Sonnenberg, D. Williams-Young, 
 F. Ding, F. Lipparini, F. Egidi, J. Goings, B. Peng, A. Petrone, 
 T. Henderson, D. Ranasinghe, V. G. Zakrzewski, J. Gao, N. Rega, 
 G. Zheng, W. Liang, M. Hada, M. Ehara, K. Toyota, R. Fukuda, 
 J. Hasegawa, M. Ishida, T. Nakajima, Y. Honda, O. Kitao, H. Nakai, 
 T. Vreven, K. Throssell, J. A. Montgomery, Jr., J. E. Peralta, 
 F. Ogliaro, M. J. Bearpark, J. J. Heyd, E. N. Brothers, K. N. Kudin, 
 V. N. Staroverov, T. A. Keith, R. Kobayashi, J. Normand, 
 K. Raghavachari, A. P. Rendell, J. C. Burant, S. S. Iyengar, 
 J. Tomasi, M. Cossi, J. M. Millam, M. Klene, C. Adamo, R. Cammi, 
 J. W. Ochterski, R. L. Martin, K. Morokuma, O. Farkas, 
 J. B. Foresman, and D. J. Fox, Gaussian, Inc., Wallingford CT, 2019.
 
 ******************************************
 Gaussian 16:  AS64L-G16RevC.02  7-Dec-2021
                10-Apr-2024 
 ******************************************
 %nprocshared=128
 Will use up to  128 processors via shared memory.
 %mem=30GB
 %chk=me_phquinolinamine_chelpg.chk
 ----------------------------------------------------------------------
 # wb97xd/genecp scrf=(solvent=toluene,pcm) nosymm pop=(chelpg) scfcyc=
 300
 ----------------------------------------------------------------------
 1/38=1,172=1/1;
 2/12=2,15=1,17=6,18=5,40=1/2;
 3/5=7,11=2,16=1,17=8,25=1,30=1,70=2201,72=13,74=-58/1,2,3;
 4//1;
 5/5=2,7=300,38=5,53=13/2;
 6/7=2,8=2,9=2,10=2,15=8,20=3,28=1/1,2;
 99/5=1,9=1/99;
 -------------------------
 me_phquinolinamine_chelpg
 -------------------------
 Symbolic Z-matrix:
 Charge =  0 Multiplicity = 1
 C                    -3.98015   0.99535  -0.15694 
 C                    -2.67092   0.5799   -0.19551 
 C                    -1.64183   1.56288  -0.03965 
 C                    -1.99774   2.91818   0.18313 
 C                    -3.36181   3.29255   0.22687 
 C                    -4.34887   2.35278   0.0576 
 H                    -4.77666   0.26631  -0.26297 
 C                    -0.94953   3.85836   0.32304 
 H                    -3.61897   4.33629   0.38174 
 C                     0.34753   3.43533   0.23259 
 C                     0.59737   2.06598  -0.00299 
 H                    -1.18748   4.90359   0.49339 
 H                     1.17616   4.126     0.3323 
 H                     1.62238   1.71256  -0.0846 
 N                    -0.34459   1.16387  -0.13727 
 B                    -2.37153  -0.96492  -0.30876 
 C                    -1.33103  -1.67761   0.62432 
 H                    -0.4157   -1.80538   0.02976 
 H                    -1.04809  -1.10939   1.51224 
 H                    -1.65845  -2.68308   0.91051 
 C                    -3.22311  -1.82731  -1.31483 
 H                    -4.1219   -2.15553  -0.76986 
 H                    -3.57242  -1.28351  -2.19632 
 H                    -2.71265  -2.74262  -1.62795 
 N                    -5.69563   2.7048    0.16663 
 H                    -5.88311   3.56554   0.65466 
 C                    -6.74498   2.22552  -0.62813 
 C                    -8.05841   2.4148   -0.18327 
 C                    -6.53306   1.59219  -1.85619 
 C                    -9.13041   1.97965  -0.94781 
 H                    -8.23098   2.89931   0.77238 
 C                    -7.61414   1.14064  -2.60355 
 H                    -5.52657   1.46434  -2.23554 
 C                    -8.91741   1.32987  -2.15998 
 H                    -10.14024   2.13848  -0.58574 
 H                    -7.42995   0.64876  -3.5524 
 H                    -9.75559   0.97998  -2.7508 
 
                          Input orientation:                          
 ---------------------------------------------------------------------
 Center     Atomic      Atomic             Coordinates (Angstroms)
 Number     Number       Type             X           Y           Z
 ---------------------------------------------------------------------
      1          6           0       -3.980150    0.995350   -0.156943
      2          6           0       -2.670916    0.579897   -0.195507
      3          6           0       -1.641833    1.562875   -0.039653
      4          6           0       -1.997743    2.918181    0.183131
      5          6           0       -3.361814    3.292551    0.226871
      6          6           0       -4.348871    2.352775    0.057600
      7          1           0       -4.776655    0.266310   -0.262970
      8          6           0       -0.949526    3.858356    0.323036
      9          1           0       -3.618971    4.336293    0.381737
     10          6           0        0.347529    3.435330    0.232589
     11          6           0        0.597373    2.065977   -0.002993
     12          1           0       -1.187476    4.903586    0.493390
     13          1           0        1.176158    4.126003    0.332297
     14          1           0        1.622378    1.712562   -0.084599
     15          7           0       -0.344587    1.163872   -0.137270
     16          5           0       -2.371533   -0.964923   -0.308757
     17          6           0       -1.331025   -1.677605    0.624316
     18          1           0       -0.415696   -1.805384    0.029755
     19          1           0       -1.048090   -1.109390    1.512240
     20          1           0       -1.658451   -2.683076    0.910512
     21          6           0       -3.223111   -1.827312   -1.314833
     22          1           0       -4.121897   -2.155529   -0.769859
     23          1           0       -3.572424   -1.283508   -2.196322
     24          1           0       -2.712645   -2.742623   -1.627949
     25          7           0       -5.695632    2.704798    0.166634
     26          1           0       -5.883106    3.565539    0.654660
     27          6           0       -6.744983    2.225524   -0.628126
     28          6           0       -8.058414    2.414796   -0.183274
     29          6           0       -6.533064    1.592189   -1.856193
     30          6           0       -9.130412    1.979649   -0.947808
     31          1           0       -8.230980    2.899314    0.772383
     32          6           0       -7.614142    1.140638   -2.603545
     33          1           0       -5.526570    1.464341   -2.235544
     34          6           0       -8.917409    1.329871   -2.159982
     35          1           0      -10.140237    2.138477   -0.585743
     36          1           0       -7.429953    0.648759   -3.552398
     37          1           0       -9.755592    0.979978   -2.750804
 ---------------------------------------------------------------------
                    Distance matrix (angstroms):
                    1          2          3          4          5
     1  C    0.000000
     2  C    1.374111   0.000000
     3  C    2.409060   1.431624   0.000000
     4  C    2.782601   2.462539   1.418858   0.000000
     5  C    2.409727   2.830942   2.453803   1.415188   0.000000
     6  C    1.422880   2.454117   2.821605   2.421414   1.373358
     7  H    1.084971   2.130029   3.399715   3.867011   3.376367
     8  C    4.196649   3.739032   2.424885   1.415013   2.479620
     9  H    3.403311   3.916954   3.431981   2.163069   1.086053
    10  C    4.983377   4.177053   2.745499   2.402122   3.712094
    11  C    4.703579   3.595443   2.295321   2.737795   4.151203
    12  H    4.847295   4.622711   3.413345   2.166709   2.719230
    13  H    6.052095   5.258652   3.827407   3.399225   4.615078
    14  H    5.648712   4.441577   3.267950   3.824980   5.237895
    15  N    3.639520   2.399213   1.360728   2.431703   3.710462
    16  B    2.540348   1.577633   2.644739   3.931942   4.403821
    17  C    3.843555   2.750224   3.322374   4.664805   5.383727
    18  H    4.536992   3.290338   3.585164   4.983820   5.891299
    19  H    3.976566   2.898906   3.146729   4.346228   5.136397
    20  H    4.478902   3.591010   4.350999   5.658470   6.251154
    21  C    3.143444   2.711543   3.952201   5.124951   5.348746
    22  H    3.213067   3.149251   4.528846   5.582361   5.590418
    23  H    3.085207   2.878933   4.059593   5.078938   5.182329
    24  H    4.212229   3.618393   4.712392   5.986301   6.347055
    25  N    2.443316   3.714197   4.216613   3.704077   2.407444
    26  H    3.299365   4.467103   4.741427   3.967046   2.571855
    27  C    3.062620   4.415118   5.179531   4.865614   3.649027
    28  C    4.318305   5.691409   6.474481   6.092568   4.795490
    29  C    3.124266   4.324211   5.217741   5.146478   4.157789
    30  C    5.302783   6.652094   7.554949   7.282502   6.031609
    31  H    4.749556   6.101706   6.772173   6.261056   4.915384
    32  C    4.383249   5.527075   6.513087   6.516837   5.542948
    33  H    2.632860   3.619220   4.463500   4.518436   3.753932
    34  C    5.338595   6.590925   7.581826   7.476275   6.357186
    35  H    6.279911   7.640171   8.535362   8.215797   6.923817
    36  H    4.852873   5.824250   6.832080   6.972328   6.149981
    37  H    6.331199   7.542032   8.574567   8.517560   7.422597
                    6          7          8          9         10
     6  C    0.000000
     7  H    2.153857   0.000000
     8  C    3.727302   5.281393   0.000000
     9  H    2.138262   4.280262   2.712528   0.000000
    10  C    4.822729   6.045290   1.367291   4.070270   0.000000
    11  C    4.954922   5.673321   2.389940   4.804155   1.411754
    12  H    4.085458   5.912581   1.085425   2.499291   2.140101
    13  H    5.809108   7.119519   2.142488   4.799993   1.083327
    14  H    6.007155   6.562856   3.374209   5.879896   2.166513
    15  N    4.181597   4.523787   2.799657   4.588596   2.403194
    16  B    3.879588   2.702340   5.068065   5.489606   5.200825
    17  C    5.066806   4.054436   5.557263   6.438984   5.395655
    18  H    5.723716   4.836896   5.696397   6.935781   5.299881
    19  H    4.999772   4.352714   5.109053   6.127229   4.923387
    20  H    5.772834   4.449622   6.605909   7.307173   6.474444
    21  C    4.541369   2.811257   6.338661   6.405082   6.545180
    22  H    4.589228   2.559482   6.886594   6.612326   7.227612
    23  H    4.348056   2.754988   6.298057   6.183099   6.597960
    24  H    5.610828   3.895765   7.105481   7.414264   7.140964
    25  N    1.396271   2.641080   4.886786   2.649635   6.087514
    26  H    2.044787   3.598776   4.953375   2.407251   6.246272
    27  C    2.495549   2.801102   6.095750   3.904756   7.246253
    28  C    3.717873   3.923300   7.271623   4.870323   8.477872
    29  C    3.001965   2.716852   6.407843   4.585889   7.423122
    30  C    4.900327   4.728608   8.489492   6.139824   9.661455
    31  H    3.985021   4.465090   7.358074   4.846456   8.612172
    32  C    4.383259   3.780750   7.769683   5.923302   8.757709
    33  H    2.726683   2.426664   5.764284   4.328649   6.669447
    34  C    5.180303   4.677142   8.720423   6.600936   9.797777
    35  H    5.830929   5.690097   9.394308   6.949340  10.599280
    36  H    5.042700   4.243418   8.204659   6.602947   9.087372
    37  H    6.245345   5.611457   9.761165   7.663927  10.816767
                   11         12         13         14         15
    11  C    0.000000
    12  H    3.388821   0.000000
    13  H    2.165899   2.493462   0.000000
    14  H    1.087289   4.290919   2.489500   0.000000
    15  N    1.311149   3.885055   3.362645   2.042740   0.000000
    16  B    4.253734   6.040267   6.238156   4.813574   2.944433
    17  C    4.257539   6.584058   6.328752   4.551745   3.102751
    18  H    4.001852   6.769112   6.148730   4.067280   2.974800
    19  H    3.884126   6.100276   5.809379   4.200560   2.895431
    20  H    5.336360   7.612703   7.398169   5.574560   4.197987
    21  C    5.610234   7.260748   7.583440   6.125598   4.315059
    22  H    6.378143   7.748402   8.291066   6.959052   5.068201
    23  H    5.780739   7.155603   7.629270   6.357812   4.544040
    24  H    6.059648   8.080268   8.132858   6.404922   4.805260
    25  N    6.327620   5.026421   7.019171   7.389244   5.576782
    26  H    6.684146   4.885214   7.088811   7.766101   6.088543
    27  C    7.370647   6.270223   8.202360   8.400672   6.506390
    28  C    8.664688   7.339056   9.405922   9.706730   7.814733
    29  C    7.382544   6.712764   8.404868   8.346512   6.437033
    30  C    9.773941   8.585843  10.605229  10.790688   8.860767
    31  H    8.901431   7.328430   9.496983   9.961499   8.126157
    32  C    8.663031   8.065533   9.736578   9.590907   7.676554
    33  H    6.545909   6.172781   7.655378   7.469648   5.598748
    34  C    9.783942   8.919848  10.766146  10.748990   8.809778
    35  H   10.753656   9.431982  11.526225  11.780987   9.854225
    36  H    8.890711   8.569742  10.062168   9.752026   7.882313
    37  H   10.766325   9.966549  11.785845  11.709122   9.768899
                   16         17         18         19         20
    16  B    0.000000
    17  C    1.568820   0.000000
    18  H    2.155519   1.098935   0.000000
    19  H    2.255749   1.091480   1.755589   0.000000
    20  H    2.224220   1.095485   1.757986   1.791956   0.000000
    21  C    1.575147   2.713430   3.112873   3.638471   2.851781
    22  H    2.166548   3.156121   3.807612   3.968712   3.028286
    23  H    2.259765   3.624249   3.897782   4.489545   3.908261
    24  H    2.239831   2.848830   2.983685   3.911391   2.749301
    25  N    4.974182   6.201993   6.945373   6.161033   6.773579
    26  H    5.812435   6.943552   7.689596   6.779955   7.547076
    27  C    5.422916   6.790727   7.532656   6.939554   7.234264
    28  C    6.616560   7.915662   8.733066   8.027409   8.254950
    29  C    5.123643   6.626137   7.247240   6.980674   7.049425
    30  C    7.400090   8.756570   9.551355   8.995439   9.001364
    31  H    7.101712   8.281273   9.152286   8.258995   8.624401
    32  C    6.097900   7.605205   8.211634   8.069408   7.901876
    33  H    4.423583   5.971032   6.476397   6.381752   6.485451
    34  C    7.179248   8.622671   9.322226   9.020055   8.844442
    35  H    8.370220   9.676205  10.511878   9.880147   9.870504
    36  H    6.221960   7.749441   8.249511   8.334856   8.020531
    37  H    8.016892   9.456612  10.135256   9.917641   9.611810
                   21         22         23         24         25
    21  C    0.000000
    22  H    1.101154   0.000000
    23  H    1.093053   1.759869   0.000000
    24  H    1.093806   1.751282   1.786417   0.000000
    25  N    5.371045   5.193885   5.098839   6.464761   0.000000
    26  H    6.327505   6.153189   6.081168   7.419908   1.007070
    27  C    5.413005   5.108257   4.983741   6.476255   1.400887
    28  C    6.531161   6.060373   6.152554   7.567252   2.406091
    29  C    4.789765   4.586855   4.141342   5.782585   2.455814
    30  C    7.037319   6.497429   6.564923   7.996886   3.683142
    31  H    7.195569   6.694364   6.929023   8.248943   2.613954
    32  C    5.454416   5.140321   4.730518   6.328995   3.714992
    33  H    4.121724   4.150277   3.372076   5.097636   2.708833
    34  C    6.565601   6.089121   5.949784   7.440925   4.205165
    35  H    8.006603   7.395458   7.578926   8.948768   4.543270
    36  H    5.369837   5.152649   4.522513   6.120292   4.589811
    37  H    7.253702   6.744929   6.607752   8.044978   5.288641
                   26         27         28         29         30
    26  H    0.000000
    27  C    2.045486   0.000000
    28  C    2.599675   1.399578   0.000000
    29  C    3.258978   1.397917   2.408741   0.000000
    30  C    3.953220   2.419281   1.386739   2.778760   0.000000
    31  H    2.443405   2.150257   1.085273   3.391299   2.147980
    32  C    4.415035   2.415511   2.771023   1.389663   2.396764
    33  H    3.591021   2.155858   3.394910   1.083182   3.861539
    34  C    4.703979   2.805033   2.412946   2.417892   1.391743
    35  H    4.658140   3.396634   2.138299   3.863181   1.084465
    36  H    5.347867   3.392158   3.855496   2.138126   3.383300
    37  H    5.768748   3.888562   3.395781   3.399973   2.154295
                   31         32         33         34         35
    31  H    0.000000
    32  C    3.856205   0.000000
    33  H    4.291923   2.144333   0.000000
    34  C    3.396042   1.389627   3.394345   0.000000
    35  H    2.463461   3.383543   4.945930   2.151135   0.000000
    36  H    4.940685   1.084524   2.454006   2.148316   4.285550
    37  H    4.291985   2.152511   4.287742   1.083534   2.485470
                   36         37
    36  H    0.000000
    37  H    2.482107   0.000000
 Symmetry turned off by external request.
 Stoichiometry    C17H17BN2
 Framework group  C1[X(C17H17BN2)]
 Deg. of freedom   105
 Full point group                 C1      NOp   1
 Rotational constants (GHZ):           0.6321944           0.1935753           0.1582165
 General basis read from cards:  (5D, 7F)
 ======================================================================================================
                                       Pseudopotential Parameters
 ======================================================================================================
  Center     Atomic      Valence      Angular      Power
  Number     Number     Electrons     Momentum     of R      Exponent        Coefficient   SO-Coeffient
 ======================================================================================================
    1          6
                                   No pseudopotential on this center.
    2          6
                                   No pseudopotential on this center.
    3          6
                                   No pseudopotential on this center.
    4          6
                                   No pseudopotential on this center.
    5          6
                                   No pseudopotential on this center.
    6          6
                                   No pseudopotential on this center.
    7          1
                                   No pseudopotential on this center.
    8          6
                                   No pseudopotential on this center.
    9          1
                                   No pseudopotential on this center.
   10          6
                                   No pseudopotential on this center.
   11          6
                                   No pseudopotential on this center.
   12          1
                                   No pseudopotential on this center.
   13          1
                                   No pseudopotential on this center.
   14          1
                                   No pseudopotential on this center.
   15          7
                                   No pseudopotential on this center.
   16          5
                                   No pseudopotential on this center.
   17          6
                                   No pseudopotential on this center.
   18          1
                                   No pseudopotential on this center.
   19          1
                                   No pseudopotential on this center.
   20          1
                                   No pseudopotential on this center.
   21          6
                                   No pseudopotential on this center.
   22          1
                                   No pseudopotential on this center.
   23          1
                                   No pseudopotential on this center.
   24          1
                                   No pseudopotential on this center.
   25          7
                                   No pseudopotential on this center.
   26          1
                                   No pseudopotential on this center.
   27          6
                                   No pseudopotential on this center.
   28          6
                                   No pseudopotential on this center.
   29          6
                                   No pseudopotential on this center.
   30          6
                                   No pseudopotential on this center.
   31          1
                                   No pseudopotential on this center.
   32          6
                                   No pseudopotential on this center.
   33          1
                                   No pseudopotential on this center.
   34          6
                                   No pseudopotential on this center.
   35          1
                                   No pseudopotential on this center.
   36          1
                                   No pseudopotential on this center.
   37          1
                                   No pseudopotential on this center.
 ======================================================================================================
   559 basis functions,   873 primitive gaussians,   579 cartesian basis functions
    69 alpha electrons       69 beta electrons
       nuclear repulsion energy      1374.1930048327 Hartrees.
 NAtoms=   37 NActive=   37 NUniq=   37 SFac= 1.00D+00 NAtFMM=   60 NAOKFM=F Big=F
 Integral buffers will be    131072 words long.
 Raffenetti 2 integral format.
 Two-electron integral symmetry is turned off.
 Nuclear repulsion after empirical dispersion term =     1374.1671947659 Hartrees.
 ------------------------------------------------------------------------------
 Polarizable Continuum Model (PCM)
 =================================
 Model                : PCM.
 Atomic radii         : UFF (Universal Force Field).
 Polarization charges : Total charges.
 Charge compensation  : None.
 Solution method      : On-the-fly selection.
 Cavity type          : Scaled VdW (van der Waals Surface) (Alpha=1.100).
 Cavity algorithm     : GePol (No added spheres)
                        Default sphere list used, NSphG=   37.
                        Lebedev-Laikov grids with approx.  5.0 points / Ang**2.
                        Smoothing algorithm: York/Karplus (Gamma=1.0000).
                        Polarization charges: spherical gaussians, with
                                              point-specific exponents (IZeta= 3).
                        Self-potential: point-specific (ISelfS= 7).
                        Self-field    : sphere-specific E.n sum rule (ISelfD= 2).
 Solvent              : Toluene, Eps=   2.374100 Eps(inf)=   2.238315
 ------------------------------------------------------------------------------
 One-electron integrals computed using PRISM.
   1 Symmetry operations used in ECPInt.
 ECPInt:  NShTT=   21115 NPrTT=   72421 LenC2=   18736 LenP2D=   44262.
 LDataN:  DoStor=T MaxTD1= 4 Len=   56
 Number of processors reduced to  83 by ecpmxn.
 NBasis=   559 RedAO= T EigKep=  1.13D-06  NBF=   559
 NBsUse=   554 1.00D-06 EigRej=  7.16D-07 NBFU=   554
 ExpMin= 3.15D-02 ExpMax= 6.29D+03 ExpMxC= 9.49D+02 IAcc=3 IRadAn=         5 AccDes= 0.00D+00
 Harris functional with IExCor= 4639 and IRadAn=       5 diagonalized for initial guess.
 HarFok:  IExCor= 4639 AccDes= 0.00D+00 IRadAn=         5 IDoV= 1 UseB2=F ITyADJ=14
 ICtDFT=  3500011 ScaDFX=  1.000000  1.000000  1.000000  1.000000
 FoFCou: FMM=F IPFlag=           0 FMFlag=      100000 FMFlg1=           0
         NFxFlg=           0 DoJE=T BraDBF=F KetDBF=T FulRan=T
         wScrn=  0.000000 ICntrl=       500 IOpCl=  0 I1Cent=   200000004 NGrid=           0
         NMat0=    1 NMatS0=      1 NMatT0=    0 NMatD0=    1 NMtDS0=    0 NMtDT0=    0
 Symmetry not used in FoFCou.
 Requested convergence on RMS density matrix=1.00D-08 within 300 cycles.
 Requested convergence on MAX density matrix=1.00D-06.
 Requested convergence on             energy=1.00D-06.
 No special actions if energy rises.
 Inv3:  Mode=1 IEnd=    23051952.
 Iteration    1 A*A^-1 deviation from unit magnitude is 4.66D-15 for   2753.
 Iteration    1 A*A^-1 deviation from orthogonality  is 1.96D-15 for   2721   2307.
 Iteration    1 A^-1*A deviation from unit magnitude is 4.44D-15 for   2753.
 Iteration    1 A^-1*A deviation from orthogonality  is 1.74D-15 for   2371   2260.
 Error on total polarization charges =  0.01179
 SCF Done:  E(RwB97XD) =  -792.357113863     A.U. after   17 cycles
            NFock= 17  Conv=0.33D-08     -V/T= 2.0043

 **********************************************************************

            Population analysis using the SCF Density.

 **********************************************************************

 Alpha  occ. eigenvalues --  -14.46050 -14.43113 -10.34138 -10.33944 -10.32484
 Alpha  occ. eigenvalues --  -10.32328 -10.30829 -10.30779 -10.29777 -10.29664
 Alpha  occ. eigenvalues --  -10.29341 -10.29334 -10.29285 -10.28968 -10.28850
 Alpha  occ. eigenvalues --  -10.28475 -10.27802 -10.24790 -10.24075  -6.84474
 Alpha  occ. eigenvalues --   -1.06412  -1.05248  -0.96624  -0.94432  -0.91404
 Alpha  occ. eigenvalues --   -0.86593  -0.85589  -0.85152  -0.82419  -0.80216
 Alpha  occ. eigenvalues --   -0.76800  -0.74973  -0.73583  -0.71576  -0.70056
 Alpha  occ. eigenvalues --   -0.69554  -0.63855  -0.63016  -0.62205  -0.60100
 Alpha  occ. eigenvalues --   -0.58022  -0.56495  -0.54520  -0.53608  -0.53460
 Alpha  occ. eigenvalues --   -0.52541  -0.51469  -0.51272  -0.50880  -0.50441
 Alpha  occ. eigenvalues --   -0.49489  -0.48445  -0.48248  -0.47133  -0.46427
 Alpha  occ. eigenvalues --   -0.45807  -0.45386  -0.45006  -0.44028  -0.43159
 Alpha  occ. eigenvalues --   -0.40441  -0.39593  -0.39029  -0.38236  -0.34109
 Alpha  occ. eigenvalues --   -0.33793  -0.33520  -0.31481  -0.27241
 Alpha virt. eigenvalues --   -0.00191   0.03327   0.03887   0.04376   0.04402
 Alpha virt. eigenvalues --    0.04664   0.05042   0.05346   0.05512   0.06235
 Alpha virt. eigenvalues --    0.06488   0.06822   0.06975   0.07412   0.07968
 Alpha virt. eigenvalues --    0.08392   0.08619   0.09164   0.09719   0.10216
 Alpha virt. eigenvalues --    0.10579   0.10858   0.11483   0.11688   0.12117
 Alpha virt. eigenvalues --    0.12520   0.13067   0.13775   0.14247   0.14365
 Alpha virt. eigenvalues --    0.14739   0.15144   0.15302   0.15768   0.15988
 Alpha virt. eigenvalues --    0.16384   0.16500   0.16810   0.17111   0.17407
 Alpha virt. eigenvalues --    0.17474   0.17802   0.17933   0.18054   0.18313
 Alpha virt. eigenvalues --    0.18663   0.19109   0.19289   0.19613   0.19767
 Alpha virt. eigenvalues --    0.20275   0.20419   0.20538   0.20718   0.21329
 Alpha virt. eigenvalues --    0.21383   0.21546   0.22033   0.22333   0.22576
 Alpha virt. eigenvalues --    0.22673   0.23214   0.23361   0.23728   0.24014
 Alpha virt. eigenvalues --    0.24406   0.24705   0.24877   0.25087   0.25463
 Alpha virt. eigenvalues --    0.25810   0.26182   0.26519   0.26904   0.27109
 Alpha virt. eigenvalues --    0.27569   0.27720   0.27900   0.28110   0.28677
 Alpha virt. eigenvalues --    0.29449   0.29708   0.29913   0.30301   0.30330
 Alpha virt. eigenvalues --    0.30714   0.31220   0.31707   0.32196   0.32267
 Alpha virt. eigenvalues --    0.32566   0.32910   0.33181   0.33327   0.34019
 Alpha virt. eigenvalues --    0.34283   0.34495   0.34816   0.35137   0.35276
 Alpha virt. eigenvalues --    0.35433   0.35854   0.36033   0.36524   0.37210
 Alpha virt. eigenvalues --    0.37536   0.37887   0.38145   0.38485   0.38829
 Alpha virt. eigenvalues --    0.39313   0.39588   0.39935   0.40341   0.40727
 Alpha virt. eigenvalues --    0.41132   0.41608   0.41724   0.42305   0.42343
 Alpha virt. eigenvalues --    0.42976   0.43169   0.43634   0.44322   0.45064
 Alpha virt. eigenvalues --    0.45613   0.45922   0.46700   0.47161   0.47242
 Alpha virt. eigenvalues --    0.49111   0.49682   0.51109   0.51945   0.55236
 Alpha virt. eigenvalues --    0.56401   0.57062   0.57666   0.58068   0.59300
 Alpha virt. eigenvalues --    0.59809   0.60512   0.62003   0.62294   0.62608
 Alpha virt. eigenvalues --    0.62988   0.63058   0.63796   0.64236   0.64645
 Alpha virt. eigenvalues --    0.65359   0.66016   0.66219   0.66499   0.67097
 Alpha virt. eigenvalues --    0.67344   0.68543   0.69085   0.69230   0.69871
 Alpha virt. eigenvalues --    0.70057   0.71318   0.71594   0.72021   0.72140
 Alpha virt. eigenvalues --    0.73412   0.73939   0.74323   0.74879   0.75365
 Alpha virt. eigenvalues --    0.76055   0.76136   0.77457   0.78093   0.78696
 Alpha virt. eigenvalues --    0.79282   0.80322   0.80359   0.81066   0.81350
 Alpha virt. eigenvalues --    0.81483   0.81784   0.82199   0.82361   0.83650
 Alpha virt. eigenvalues --    0.83843   0.84688   0.85281   0.85699   0.86611
 Alpha virt. eigenvalues --    0.86859   0.87940   0.88611   0.89165   0.90113
 Alpha virt. eigenvalues --    0.90719   0.91166   0.92028   0.92452   0.92703
 Alpha virt. eigenvalues --    0.93472   0.94123   0.94810   0.95514   0.96492
 Alpha virt. eigenvalues --    0.97318   0.97963   0.98075   0.98528   0.99272
 Alpha virt. eigenvalues --    1.00048   1.00789   1.01296   1.02001   1.02524
 Alpha virt. eigenvalues --    1.03458   1.03726   1.04621   1.05773   1.07015
 Alpha virt. eigenvalues --    1.07227   1.07635   1.09100   1.09516   1.09922
 Alpha virt. eigenvalues --    1.11374   1.12190   1.12722   1.13712   1.14211
 Alpha virt. eigenvalues --    1.15193   1.15769   1.16118   1.17253   1.17624
 Alpha virt. eigenvalues --    1.19106   1.19518   1.20390   1.21240   1.21926
 Alpha virt. eigenvalues --    1.23468   1.23626   1.24461   1.25542   1.27918
 Alpha virt. eigenvalues --    1.29731   1.31433   1.33874   1.37672   1.38656
 Alpha virt. eigenvalues --    1.39344   1.40111   1.40915   1.43142   1.44801
 Alpha virt. eigenvalues --    1.46479   1.47827   1.48903   1.54516   1.56050
 Alpha virt. eigenvalues --    1.57269   1.57832   1.58165   1.58842   1.59726
 Alpha virt. eigenvalues --    1.60461   1.61209   1.62066   1.62511   1.62689
 Alpha virt. eigenvalues --    1.63609   1.64648   1.65540   1.65621   1.66037
 Alpha virt. eigenvalues --    1.67162   1.67811   1.68174   1.68766   1.70976
 Alpha virt. eigenvalues --    1.72653   1.72893   1.73519   1.73975   1.74543
 Alpha virt. eigenvalues --    1.75283   1.76326   1.77701   1.78334   1.79734
 Alpha virt. eigenvalues --    1.80047   1.80856   1.81816   1.82621   1.83076
 Alpha virt. eigenvalues --    1.83343   1.83694   1.86079   1.87482   1.87861
 Alpha virt. eigenvalues --    1.88489   1.89034   1.89866   1.92419   1.93834
 Alpha virt. eigenvalues --    1.94763   1.95645   1.96774   1.98089   1.98742
 Alpha virt. eigenvalues --    1.99660   2.00248   2.00906   2.01428   2.02543
 Alpha virt. eigenvalues --    2.03026   2.03806   2.04370   2.05332   2.05876
 Alpha virt. eigenvalues --    2.06833   2.08473   2.08970   2.09556   2.11317
 Alpha virt. eigenvalues --    2.11396   2.12751   2.13703   2.15411   2.16689
 Alpha virt. eigenvalues --    2.17559   2.18591   2.18789   2.20774   2.21825
 Alpha virt. eigenvalues --    2.23431   2.24585   2.26490   2.27690   2.28954
 Alpha virt. eigenvalues --    2.30220   2.33615   2.33681   2.36538   2.36621
 Alpha virt. eigenvalues --    2.37827   2.40459   2.42880   2.44179   2.44868
 Alpha virt. eigenvalues --    2.47018   2.48231   2.50156   2.51178   2.53880
 Alpha virt. eigenvalues --    2.54724   2.55139   2.55755   2.56610   2.57125
 Alpha virt. eigenvalues --    2.57998   2.59471   2.60276   2.61400   2.62056
 Alpha virt. eigenvalues --    2.65460   2.67325   2.68116   2.68652   2.70587
 Alpha virt. eigenvalues --    2.71947   2.72694   2.73034   2.73401   2.74939
 Alpha virt. eigenvalues --    2.75834   2.78018   2.78629   2.80350   2.80488
 Alpha virt. eigenvalues --    2.80841   2.81480   2.81861   2.82375   2.82632
 Alpha virt. eigenvalues --    2.83448   2.84177   2.85124   2.85202   2.85959
 Alpha virt. eigenvalues --    2.86654   2.87474   2.87906   2.89180   2.90656
 Alpha virt. eigenvalues --    2.92330   2.92863   2.93433   2.94975   2.95462
 Alpha virt. eigenvalues --    2.97563   2.98886   3.00708   3.01304   3.02963
 Alpha virt. eigenvalues --    3.03616   3.04632   3.05714   3.06318   3.07422
 Alpha virt. eigenvalues --    3.09086   3.12227   3.13505   3.14971   3.15343
 Alpha virt. eigenvalues --    3.17164   3.17501   3.20838   3.23317   3.30950
 Alpha virt. eigenvalues --    3.32859   3.35839   3.38647   3.44776   3.45264
 Alpha virt. eigenvalues --    3.46269   3.48079   3.50710   3.53944   3.55384
 Alpha virt. eigenvalues --    3.59247   3.61177   3.61980   3.63299   3.65457
 Alpha virt. eigenvalues --    3.70604   3.73247   3.75472   3.77673   3.78643
 Alpha virt. eigenvalues --    3.86043   3.88191   3.94450   3.96667   3.97651
 Alpha virt. eigenvalues --    4.02547   4.04250   4.09014   4.09234   4.10213
 Alpha virt. eigenvalues --    4.13062   4.13780   4.15965   4.17370   4.25676
 Alpha virt. eigenvalues --    4.27662   4.28789   4.30245   4.59494   4.65484
 Alpha virt. eigenvalues --    4.94915   4.95281   4.98358   5.26056   5.37978
 Alpha virt. eigenvalues --   14.82070  23.72129  23.77500  23.97660  24.04360
 Alpha virt. eigenvalues --   24.09656  24.10153  24.10899  24.13566  24.14551
 Alpha virt. eigenvalues --   24.15761  24.18233  24.21165  24.24512  24.26270
 Alpha virt. eigenvalues --   24.29870  24.30489  24.33831  35.80871  35.84869
          Condensed to atoms (all electrons):
               1          2          3          4          5          6
     1  C   14.053248  -3.290456  -4.055332   2.494212  -0.567962  -1.564308
     2  C   -3.290456  16.052829   3.032938  -2.792327   0.613653  -5.311476
     3  C   -4.055332   3.032938  10.211192  -2.766394   0.489943  -0.780162
     4  C    2.494212  -2.792327  -2.766394  15.219162  -1.846020  -1.471120
     5  C   -0.567962   0.613653   0.489943  -1.846020   7.441257   0.535798
     6  C   -1.564308  -5.311476  -0.780162  -1.471120   0.535798  15.313777
     7  H    0.411887  -0.174448  -0.020086   0.097950  -0.024874  -0.045050
     8  C   -1.761881  -1.737812   0.507519  -3.608948  -0.001986   0.400650
     9  H    0.014289   0.073396   0.039215   0.006128   0.412373  -0.150341
    10  C    1.026640   0.503609  -0.067947   1.930582  -0.781113  -0.645528
    11  C   -0.869746  -0.390983   0.207949  -1.535322   0.291355   0.294948
    12  H   -0.021650  -0.031244   0.015701  -0.117657   0.037103   0.037237
    13  H    0.008875  -0.004139  -0.019598   0.044993  -0.003991  -0.004242
    14  H   -0.009517   0.020491   0.007687  -0.001695  -0.000698   0.003548
    15  N   -0.103765  -0.220801   0.254936  -0.056432   0.044651   0.073451
    16  B    0.201133  -0.131948  -0.145753  -0.176415   0.085521   0.304737
    17  C    0.299316  -0.353581  -0.152457  -0.040438   0.012373   0.060750
    18  H    0.031864  -0.035235   0.016909   0.032234  -0.009770   0.001838
    19  H    0.068224  -0.029868  -0.040196   0.028085  -0.008257   0.005756
    20  H   -0.013808  -0.001898  -0.012285  -0.007945   0.001570   0.001984
    21  C    0.153750  -0.237924  -0.096471  -0.050285   0.013351  -0.015506
    22  H   -0.083148   0.023397   0.050638   0.001157  -0.005692   0.016108
    23  H   -0.106717   0.208318   0.025918  -0.020611   0.005874  -0.085843
    24  H    0.048690  -0.040797  -0.019254   0.002674  -0.000021   0.006700
    25  N    0.199138   0.287495   0.095594  -0.054409  -0.032864  -0.949634
    26  H   -0.001416  -0.022864  -0.001781   0.012479   0.012011  -0.070333
    27  C   -0.053970  -1.029671  -0.315729   0.204465  -0.513432   1.524042
    28  C    0.569077  -0.243164  -0.103505   0.309434  -0.399831  -0.282889
    29  C   -0.601487   0.596525   0.208791  -0.557742   0.698189  -0.355615
    30  C    0.096502   0.115985   0.021804  -0.019817  -0.076803  -0.079160
    31  H    0.020092  -0.001904  -0.002102  -0.003384  -0.005270  -0.009719
    32  C    0.243726   0.409849   0.085790  -0.038852  -0.015855  -1.102955
    33  H   -0.032342  -0.060855  -0.009908   0.025074   0.019028   0.091080
    34  C   -0.091544  -0.102768  -0.020801   0.013762   0.081815   0.163176
    35  H   -0.000493   0.001965   0.000551  -0.000594  -0.001914   0.002605
    36  H    0.006502   0.010679   0.002290  -0.002863  -0.005360  -0.014506
    37  H   -0.001443  -0.003089  -0.000485   0.000260   0.001669   0.002383
               7          8          9         10         11         12
     1  C    0.411887  -1.761881   0.014289   1.026640  -0.869746  -0.021650
     2  C   -0.174448  -1.737812   0.073396   0.503609  -0.390983  -0.031244
     3  C   -0.020086   0.507519   0.039215  -0.067947   0.207949   0.015701
     4  C    0.097950  -3.608948   0.006128   1.930582  -1.535322  -0.117657
     5  C   -0.024874  -0.001986   0.412373  -0.781113   0.291355   0.037103
     6  C   -0.045050   0.400650  -0.150341  -0.645528   0.294948   0.037237
     7  H    0.573786   0.011287  -0.003249   0.006699  -0.018508   0.000168
     8  C    0.011287  12.900174  -0.073566  -2.549168   1.715867   0.446945
     9  H   -0.003249  -0.073566   0.496701   0.030935  -0.010942  -0.001360
    10  C    0.006699  -2.549168   0.030935   8.646632  -1.796810  -0.080134
    11  C   -0.018508   1.715867  -0.010942  -1.796810   7.549022   0.035718
    12  H    0.000168   0.446945  -0.001360  -0.080134   0.035718   0.450908
    13  H    0.000117  -0.014386   0.000352   0.361563  -0.047763  -0.003124
    14  H   -0.000711  -0.024682  -0.000165  -0.111457   0.498690   0.000912
    15  N    0.000321  -0.147817  -0.001815   0.091321   0.107096  -0.001250
    16  B   -0.100654  -0.015753   0.003044  -0.063634   0.054218  -0.000126
    17  C   -0.016003  -0.044394   0.001414   0.012530  -0.015457  -0.000322
    18  H   -0.001091  -0.003096  -0.000037   0.007670  -0.013561   0.000043
    19  H   -0.002503  -0.006984  -0.000227   0.011550  -0.010052   0.000216
    20  H    0.000133  -0.002007   0.000123   0.001734  -0.000223  -0.000043
    21  C    0.002693  -0.022274   0.001545  -0.002124   0.003996  -0.000172
    22  H   -0.009070   0.009864  -0.000218  -0.003573   0.003496   0.000070
    23  H    0.022668   0.003928   0.000335  -0.001367   0.000578  -0.000044
    24  H    0.001037  -0.002661   0.000100   0.001344  -0.002615  -0.000021
    25  N   -0.005867  -0.028640  -0.010634  -0.003348  -0.001818   0.001067
    26  H    0.000624   0.027322  -0.008321  -0.002628   0.001713   0.001680
    27  C    0.039182   0.063528  -0.035746  -0.003411  -0.007999   0.004919
    28  C    0.046410   0.021564  -0.041839   0.001674  -0.002422   0.001444
    29  C   -0.059187  -0.101971   0.054969   0.002119   0.002064  -0.002929
    30  C    0.017800   0.010175  -0.003550  -0.000826   0.000582   0.000166
    31  H   -0.002217  -0.002373   0.001221   0.000289  -0.000203  -0.000057
    32  C    0.011270  -0.001097  -0.001941  -0.002686   0.001324   0.000397
    33  H   -0.010760   0.006198  -0.001682   0.001099  -0.000668   0.000133
    34  C   -0.005640  -0.007627   0.003849   0.000658  -0.000444  -0.000206
    35  H   -0.000082   0.000201  -0.000199  -0.000023   0.000017   0.000009
    36  H   -0.001783   0.000373  -0.000155  -0.000114   0.000119   0.000018
    37  H   -0.000350  -0.000121   0.000052   0.000013  -0.000011  -0.000003
              13         14         15         16         17         18
     1  C    0.008875  -0.009517  -0.103765   0.201133   0.299316   0.031864
     2  C   -0.004139   0.020491  -0.220801  -0.131948  -0.353581  -0.035235
     3  C   -0.019598   0.007687   0.254936  -0.145753  -0.152457   0.016909
     4  C    0.044993  -0.001695  -0.056432  -0.176415  -0.040438   0.032234
     5  C   -0.003991  -0.000698   0.044651   0.085521   0.012373  -0.009770
     6  C   -0.004242   0.003548   0.073451   0.304737   0.060750   0.001838
     7  H    0.000117  -0.000711   0.000321  -0.100654  -0.016003  -0.001091
     8  C   -0.014386  -0.024682  -0.147817  -0.015753  -0.044394  -0.003096
     9  H    0.000352  -0.000165  -0.001815   0.003044   0.001414  -0.000037
    10  C    0.361563  -0.111457   0.091321  -0.063634   0.012530   0.007670
    11  C   -0.047763   0.498690   0.107096   0.054218  -0.015457  -0.013561
    12  H   -0.003124   0.000912  -0.001250  -0.000126  -0.000322   0.000043
    13  H    0.432589  -0.000407   0.010339  -0.001624   0.000354   0.000152
    14  H   -0.000407   0.483349  -0.104687  -0.003957   0.000983   0.000475
    15  N    0.010339  -0.104687   6.915923   0.036239  -0.032946  -0.025241
    16  B   -0.001624  -0.003957   0.036239   4.540761   0.407809  -0.099480
    17  C    0.000354   0.000983  -0.032946   0.407809   5.421640   0.432958
    18  H    0.000152   0.000475  -0.025241  -0.099480   0.432958   0.526761
    19  H    0.000121   0.000146  -0.016443  -0.117787   0.423232  -0.005193
    20  H    0.000032  -0.000842   0.015388  -0.082011   0.414937  -0.008682
    21  C   -0.000018   0.000255   0.013084   0.331783  -0.039412  -0.009048
    22  H   -0.000032   0.000119  -0.001534  -0.104075  -0.013802   0.000822
    23  H    0.000008  -0.000045   0.002911  -0.144534  -0.034160  -0.009781
    24  H    0.000005  -0.000242   0.001253  -0.094229   0.011450   0.002251
    25  N    0.000036  -0.000028   0.002465  -0.021762   0.000247  -0.000350
    26  H   -0.000040   0.000029   0.000343  -0.000507  -0.000478   0.000010
    27  C   -0.000008  -0.000248  -0.001378   0.036788  -0.012253   0.000772
    28  C    0.000073   0.000001  -0.001477  -0.002535  -0.003234   0.000222
    29  C   -0.000208   0.000039   0.002114  -0.010951   0.014339  -0.000663
    30  C   -0.000009   0.000005   0.000085  -0.004765  -0.000758  -0.000098
    31  H    0.000002  -0.000003  -0.000026   0.000062   0.000059   0.000006
    32  C   -0.000041   0.000039   0.000388  -0.018341   0.005199   0.000178
    33  H    0.000012  -0.000043   0.001017   0.006133  -0.000605  -0.000134
    34  C    0.000008  -0.000003  -0.000018   0.009677   0.001255   0.000124
    35  H   -0.000000   0.000000   0.000003   0.000063  -0.000007  -0.000002
    36  H   -0.000003   0.000002   0.000017   0.001966  -0.000029  -0.000009
    37  H    0.000000  -0.000000  -0.000002   0.000078   0.000002   0.000002
              19         20         21         22         23         24
     1  C    0.068224  -0.013808   0.153750  -0.083148  -0.106717   0.048690
     2  C   -0.029868  -0.001898  -0.237924   0.023397   0.208318  -0.040797
     3  C   -0.040196  -0.012285  -0.096471   0.050638   0.025918  -0.019254
     4  C    0.028085  -0.007945  -0.050285   0.001157  -0.020611   0.002674
     5  C   -0.008257   0.001570   0.013351  -0.005692   0.005874  -0.000021
     6  C    0.005756   0.001984  -0.015506   0.016108  -0.085843   0.006700
     7  H   -0.002503   0.000133   0.002693  -0.009070   0.022668   0.001037
     8  C   -0.006984  -0.002007  -0.022274   0.009864   0.003928  -0.002661
     9  H   -0.000227   0.000123   0.001545  -0.000218   0.000335   0.000100
    10  C    0.011550   0.001734  -0.002124  -0.003573  -0.001367   0.001344
    11  C   -0.010052  -0.000223   0.003996   0.003496   0.000578  -0.002615
    12  H    0.000216  -0.000043  -0.000172   0.000070  -0.000044  -0.000021
    13  H    0.000121   0.000032  -0.000018  -0.000032   0.000008   0.000005
    14  H    0.000146  -0.000842   0.000255   0.000119  -0.000045  -0.000242
    15  N   -0.016443   0.015388   0.013084  -0.001534   0.002911   0.001253
    16  B   -0.117787  -0.082011   0.331783  -0.104075  -0.144534  -0.094229
    17  C    0.423232   0.414937  -0.039412  -0.013802  -0.034160   0.011450
    18  H   -0.005193  -0.008682  -0.009048   0.000822  -0.009781   0.002251
    19  H    0.573571  -0.024024  -0.010998  -0.006218  -0.008307  -0.001356
    20  H   -0.024024   0.568147   0.014229  -0.003670  -0.003954   0.007464
    21  C   -0.010998   0.014229   5.406127   0.418459   0.422980   0.423580
    22  H   -0.006218  -0.003670   0.418459   0.557602  -0.017814  -0.004687
    23  H   -0.008307  -0.003954   0.422980  -0.017814   0.594462  -0.017004
    24  H   -0.001356   0.007464   0.423580  -0.004687  -0.017004   0.516349
    25  N   -0.000435  -0.000188  -0.001733  -0.000349   0.003618  -0.000552
    26  H    0.000063  -0.000043  -0.000153   0.000166  -0.000124  -0.000007
    27  C    0.001194  -0.001239   0.018078  -0.003315  -0.009681   0.002631
    28  C    0.000996  -0.000826   0.000377  -0.005406  -0.000816   0.000009
    29  C   -0.002128   0.001581  -0.004117   0.006780   0.007672  -0.000148
    30  C   -0.000115  -0.000037  -0.004005   0.001688   0.002094  -0.000336
    31  H    0.000010  -0.000000   0.000113  -0.000060   0.000006   0.000002
    32  C    0.000054   0.000724  -0.004315  -0.005650   0.006673  -0.000698
    33  H   -0.000089  -0.000136  -0.001886   0.003152  -0.006797  -0.000957
    34  C    0.000099   0.000173   0.003760  -0.002400  -0.003930   0.000542
    35  H   -0.000004   0.000001  -0.000093   0.000048   0.000008  -0.000004
    36  H    0.000013  -0.000008  -0.001069  -0.000423  -0.000596  -0.000175
    37  H    0.000003  -0.000002   0.000177  -0.000120  -0.000029   0.000019
              25         26         27         28         29         30
     1  C    0.199138  -0.001416  -0.053970   0.569077  -0.601487   0.096502
     2  C    0.287495  -0.022864  -1.029671  -0.243164   0.596525   0.115985
     3  C    0.095594  -0.001781  -0.315729  -0.103505   0.208791   0.021804
     4  C   -0.054409   0.012479   0.204465   0.309434  -0.557742  -0.019817
     5  C   -0.032864   0.012011  -0.513432  -0.399831   0.698189  -0.076803
     6  C   -0.949634  -0.070333   1.524042  -0.282889  -0.355615  -0.079160
     7  H   -0.005867   0.000624   0.039182   0.046410  -0.059187   0.017800
     8  C   -0.028640   0.027322   0.063528   0.021564  -0.101971   0.010175
     9  H   -0.010634  -0.008321  -0.035746  -0.041839   0.054969  -0.003550
    10  C   -0.003348  -0.002628  -0.003411   0.001674   0.002119  -0.000826
    11  C   -0.001818   0.001713  -0.007999  -0.002422   0.002064   0.000582
    12  H    0.001067   0.001680   0.004919   0.001444  -0.002929   0.000166
    13  H    0.000036  -0.000040  -0.000008   0.000073  -0.000208  -0.000009
    14  H   -0.000028   0.000029  -0.000248   0.000001   0.000039   0.000005
    15  N    0.002465   0.000343  -0.001378  -0.001477   0.002114   0.000085
    16  B   -0.021762  -0.000507   0.036788  -0.002535  -0.010951  -0.004765
    17  C    0.000247  -0.000478  -0.012253  -0.003234   0.014339  -0.000758
    18  H   -0.000350   0.000010   0.000772   0.000222  -0.000663  -0.000098
    19  H   -0.000435   0.000063   0.001194   0.000996  -0.002128  -0.000115
    20  H   -0.000188  -0.000043  -0.001239  -0.000826   0.001581  -0.000037
    21  C   -0.001733  -0.000153   0.018078   0.000377  -0.004117  -0.004005
    22  H   -0.000349   0.000166  -0.003315  -0.005406   0.006780   0.001688
    23  H    0.003618  -0.000124  -0.009681  -0.000816   0.007672   0.002094
    24  H   -0.000552  -0.000007   0.002631   0.000009  -0.000148  -0.000336
    25  N    7.428075   0.363887  -0.488861  -0.263579   0.283465  -0.047464
    26  H    0.363887   0.366762   0.010913   0.006554  -0.010685   0.004339
    27  C   -0.488861   0.010913   9.697355  -0.223402  -0.406452  -0.216503
    28  C   -0.263579   0.006554  -0.223402   9.411312  -3.299650   0.295844
    29  C    0.283465  -0.010685  -0.406452  -3.299650  10.329183  -0.014098
    30  C   -0.047464   0.004339  -0.216503   0.295844  -0.014098   5.890176
    31  H    0.016569  -0.001566  -0.110944   0.500114  -0.056796  -0.034219
    32  C    0.271381   0.003946  -1.881562   0.981266  -1.297594  -0.239114
    33  H   -0.019656   0.001402  -0.005797  -0.054281   0.500548   0.008904
    34  C    0.060561  -0.008730  -0.193568  -0.615060  -0.256519   0.288472
    35  H   -0.006426   0.000747   0.033355  -0.104826   0.028827   0.431036
    36  H   -0.003354   0.000304   0.028301   0.031238  -0.023494   0.006578
    37  H    0.001812  -0.000269   0.011653  -0.016081  -0.014723  -0.069005
              31         32         33         34         35         36
     1  C    0.020092   0.243726  -0.032342  -0.091544  -0.000493   0.006502
     2  C   -0.001904   0.409849  -0.060855  -0.102768   0.001965   0.010679
     3  C   -0.002102   0.085790  -0.009908  -0.020801   0.000551   0.002290
     4  C   -0.003384  -0.038852   0.025074   0.013762  -0.000594  -0.002863
     5  C   -0.005270  -0.015855   0.019028   0.081815  -0.001914  -0.005360
     6  C   -0.009719  -1.102955   0.091080   0.163176   0.002605  -0.014506
     7  H   -0.002217   0.011270  -0.010760  -0.005640  -0.000082  -0.001783
     8  C   -0.002373  -0.001097   0.006198  -0.007627   0.000201   0.000373
     9  H    0.001221  -0.001941  -0.001682   0.003849  -0.000199  -0.000155
    10  C    0.000289  -0.002686   0.001099   0.000658  -0.000023  -0.000114
    11  C   -0.000203   0.001324  -0.000668  -0.000444   0.000017   0.000119
    12  H   -0.000057   0.000397   0.000133  -0.000206   0.000009   0.000018
    13  H    0.000002  -0.000041   0.000012   0.000008  -0.000000  -0.000003
    14  H   -0.000003   0.000039  -0.000043  -0.000003   0.000000   0.000002
    15  N   -0.000026   0.000388   0.001017  -0.000018   0.000003   0.000017
    16  B    0.000062  -0.018341   0.006133   0.009677   0.000063   0.001966
    17  C    0.000059   0.005199  -0.000605   0.001255  -0.000007  -0.000029
    18  H    0.000006   0.000178  -0.000134   0.000124  -0.000002  -0.000009
    19  H    0.000010   0.000054  -0.000089   0.000099  -0.000004   0.000013
    20  H   -0.000000   0.000724  -0.000136   0.000173   0.000001  -0.000008
    21  C    0.000113  -0.004315  -0.001886   0.003760  -0.000093  -0.001069
    22  H   -0.000060  -0.005650   0.003152  -0.002400   0.000048  -0.000423
    23  H    0.000006   0.006673  -0.006797  -0.003930   0.000008  -0.000596
    24  H    0.000002  -0.000698  -0.000957   0.000542  -0.000004  -0.000175
    25  N    0.016569   0.271381  -0.019656   0.060561  -0.006426  -0.003354
    26  H   -0.001566   0.003946   0.001402  -0.008730   0.000747   0.000304
    27  C   -0.110944  -1.881562  -0.005797  -0.193568   0.033355   0.028301
    28  C    0.500114   0.981266  -0.054281  -0.615060  -0.104826   0.031238
    29  C   -0.056796  -1.297594   0.500548  -0.256519   0.028827  -0.023494
    30  C   -0.034219  -0.239114   0.008904   0.288472   0.431036   0.006578
    31  H    0.474479   0.016212  -0.002604   0.002739  -0.009428   0.000968
    32  C    0.016212   8.192606  -0.173913   0.437313  -0.014849   0.378003
    33  H   -0.002604  -0.173913   0.477584   0.012368   0.000444  -0.008173
    34  C    0.002739   0.437313   0.012368   6.200414  -0.037487  -0.091879
    35  H   -0.009428  -0.014849   0.000444  -0.037487   0.462033   0.000819
    36  H    0.000968   0.378003  -0.008173  -0.091879   0.000819   0.463902
    37  H    0.000666  -0.062546   0.001281   0.485954  -0.008985  -0.009643
              37
     1  C   -0.001443
     2  C   -0.003089
     3  C   -0.000485
     4  C    0.000260
     5  C    0.001669
     6  C    0.002383
     7  H   -0.000350
     8  C   -0.000121
     9  H    0.000052
    10  C    0.000013
    11  C   -0.000011
    12  H   -0.000003
    13  H    0.000000
    14  H   -0.000000
    15  N   -0.000002
    16  B    0.000078
    17  C    0.000002
    18  H    0.000002
    19  H    0.000003
    20  H   -0.000002
    21  C    0.000177
    22  H   -0.000120
    23  H   -0.000029
    24  H    0.000019
    25  N    0.001812
    26  H   -0.000269
    27  C    0.011653
    28  C   -0.016081
    29  C   -0.014723
    30  C   -0.069005
    31  H    0.000666
    32  C   -0.062546
    33  H    0.001281
    34  C    0.485954
    35  H   -0.008985
    36  H   -0.009643
    37  H    0.474872
 Mulliken charges:
               1
     1  C   -0.716182
     2  C    0.298121
     3  C   -0.645121
     4  C    0.746622
     5  C   -0.495821
     6  C    0.097817
     7  H    0.258101
     8  C    0.033647
     9  H    0.205944
    10  C   -0.522771
    11  C   -0.043207
    12  H    0.225489
    13  H    0.240000
    14  H    0.242659
    15  N    0.142288
    16  B    0.320828
    17  C   -0.760514
    18  H    0.166180
    19  H    0.177851
    20  H    0.135652
    21  C   -0.726737
    22  H    0.177689
    23  H    0.164101
    24  H    0.159665
    25  N   -0.073459
    26  H    0.314652
    27  C   -0.162011
    28  C   -0.512786
    29  C    0.339950
    30  C   -0.381551
    31  H    0.209265
    32  C   -0.184330
    33  H    0.235829
    34  C   -0.328096
    35  H    0.222683
    36  H    0.231542
    37  H    0.206012
 Sum of Mulliken charges =  -0.00000
 Mulliken charges with hydrogens summed into heavy atoms:
               1
     1  C   -0.458081
     2  C    0.298121
     3  C   -0.645121
     4  C    0.746622
     5  C   -0.289878
     6  C    0.097817
     8  C    0.259136
    10  C   -0.282770
    11  C    0.199452
    15  N    0.142288
    16  B    0.320828
    17  C   -0.280832
    21  C   -0.225282
    25  N    0.241192
    27  C   -0.162011
    28  C   -0.303521
    29  C    0.575779
    30  C   -0.158868
    32  C    0.047212
    34  C   -0.122084
 Electronic spatial extent (au):  <R**2>=          15450.2349
 Charge=             -0.0000 electrons
 Dipole moment (field-independent basis, Debye):
    X=             -1.0117    Y=              2.8445    Z=              0.6201  Tot=              3.0821
 Quadrupole moment (field-independent basis, Debye-Ang):
   XX=           -101.4881   YY=           -101.5672   ZZ=           -119.4679
   XY=             -6.7194   XZ=             -3.1941   YZ=              7.2798
 Traceless Quadrupole moment (field-independent basis, Debye-Ang):
   XX=              6.0196   YY=              5.9405   ZZ=            -11.9602
   XY=             -6.7194   XZ=             -3.1941   YZ=              7.2798
 Octapole moment (field-independent basis, Debye-Ang**2):
  XXX=           1231.3304  YYY=           -436.3914  ZZZ=            145.9893  XYY=            425.8850
  XXY=           -112.6238  XXZ=             71.0333  XZZ=            449.4031  YZZ=           -186.5669
  YYZ=             86.6311  XYZ=            -40.4066
 Hexadecapole moment (field-independent basis, Debye-Ang**3):
 XXXX=         -15689.1976 YYYY=          -3223.4959 ZZZZ=           -858.1217 XXXY=           1703.2734
 XXXZ=          -1302.7774 YYYX=           1961.4278 YYYZ=            245.1451 ZZZX=          -1162.8693
 ZZZY=            120.6823 XXYY=          -3346.8452 XXZZ=          -2954.2657 YYZZ=           -815.3162
 XXYZ=            337.6032 YYXZ=           -611.7691 ZZXY=            764.8581
 N-N= 1.374167194766D+03 E-N=-4.588116386021D+03  KE= 7.889306052817D+02
 Breneman (CHELPG) radii used.
 Generate Potential Derived Charges using the Breneman model, NDens= 1.
 Grid spacing= 0.300 Box extension= 2.800
 NStep X,Y,Z=   59     46     37   Total possible points=      100418
 Number of Points to Fit=   22158

 **********************************************************************

            Electrostatic Properties Using The SCF Density.

 **********************************************************************

       Atomic Center    1 is at  -3.980150  0.995350 -0.156943
       Atomic Center    2 is at  -2.670916  0.579897 -0.195507
       Atomic Center    3 is at  -1.641833  1.562875 -0.039653
       Atomic Center    4 is at  -1.997743  2.918181  0.183131
       Atomic Center    5 is at  -3.361814  3.292551  0.226871
       Atomic Center    6 is at  -4.348871  2.352775  0.057600
       Atomic Center    7 is at  -4.776655  0.266310 -0.262970
       Atomic Center    8 is at  -0.949526  3.858356  0.323036
       Atomic Center    9 is at  -3.618971  4.336293  0.381737
       Atomic Center   10 is at   0.347529  3.435330  0.232589
       Atomic Center   11 is at   0.597373  2.065977 -0.002993
       Atomic Center   12 is at  -1.187476  4.903586  0.493390
       Atomic Center   13 is at   1.176158  4.126003  0.332297
       Atomic Center   14 is at   1.622378  1.712562 -0.084599
       Atomic Center   15 is at  -0.344587  1.163872 -0.137270
       Atomic Center   16 is at  -2.371533 -0.964923 -0.308757
       Atomic Center   17 is at  -1.331025 -1.677605  0.624316
       Atomic Center   18 is at  -0.415696 -1.805384  0.029755
       Atomic Center   19 is at  -1.048090 -1.109390  1.512240
       Atomic Center   20 is at  -1.658451 -2.683076  0.910512
       Atomic Center   21 is at  -3.223111 -1.827312 -1.314833
       Atomic Center   22 is at  -4.121897 -2.155529 -0.769859
       Atomic Center   23 is at  -3.572424 -1.283508 -2.196322
       Atomic Center   24 is at  -2.712645 -2.742623 -1.627949
       Atomic Center   25 is at  -5.695632  2.704798  0.166634
       Atomic Center   26 is at  -5.883106  3.565539  0.654660
       Atomic Center   27 is at  -6.744983  2.225524 -0.628126
       Atomic Center   28 is at  -8.058414  2.414796 -0.183274
       Atomic Center   29 is at  -6.533064  1.592189 -1.856193
       Atomic Center   30 is at  -9.130412  1.979649 -0.947808
       Atomic Center   31 is at  -8.230980  2.899314  0.772383
       Atomic Center   32 is at  -7.614142  1.140638 -2.603545
       Atomic Center   33 is at  -5.526570  1.464341 -2.235544
       Atomic Center   34 is at  -8.917409  1.329871 -2.159982
       Atomic Center   35 is at -10.140237  2.138477 -0.585743
       Atomic Center   36 is at  -7.429953  0.648759 -3.552398
       Atomic Center   37 is at  -9.755592  0.979978 -2.750804
   22158 points will be used for fitting atomic charges
 Fitting point charges to electrostatic potential
 Charges from ESP fit, RMS=   0.00422 RRMS=   0.33396:
 ESP charges:
               1
     1  C   -0.143288
     2  C   -0.401586
     3  C    0.472475
     4  C    0.011763
     5  C   -0.407782
     6  C    0.451002
     7  H    0.114857
     8  C   -0.029343
     9  H    0.172971
    10  C   -0.283639
    11  C    0.321009
    12  H    0.110570
    13  H    0.128566
    14  H    0.033842
    15  N   -0.604322
    16  B    0.701349
    17  C   -0.524982
    18  H    0.106338
    19  H    0.091393
    20  H    0.091687
    21  C   -0.480768
    22  H    0.091368
    23  H    0.089831
    24  H    0.085301
    25  N   -0.779540
    26  H    0.383579
    27  C    0.440598
    28  C   -0.282542
    29  C   -0.217088
    30  C   -0.050649
    31  H    0.137280
    32  C   -0.067192
    33  H    0.100483
    34  C   -0.179408
    35  H    0.100916
    36  H    0.107556
    37  H    0.107391
 Sum of ESP charges =   0.00000
 ESP charges with hydrogens summed into heavy atoms:
               1
     1  C   -0.028431
     2  C   -0.401586
     3  C    0.472475
     4  C    0.011763
     5  C   -0.234811
     6  C    0.451002
     8  C    0.081227
    10  C   -0.155073
    11  C    0.354851
    15  N   -0.604322
    16  B    0.701349
    17  C   -0.235563
    21  C   -0.214268
    25  N   -0.395961
    27  C    0.440598
    28  C   -0.145262
    29  C   -0.116605
    30  C    0.050266
    32  C    0.040365
    34  C   -0.072016
 Charge=   0.00000 Dipole=    -1.0955     3.0183     0.5538 Tot=     3.2584
 -----------------------------------------------------------------

              Electrostatic Properties (Atomic Units)

 -----------------------------------------------------------------
    Center     Electric         -------- Electric Field --------
               Potential          X             Y             Z
 -----------------------------------------------------------------
    1 Atom    -14.768770
    2 Atom    -14.790782
    3 Atom    -14.742273
    4 Atom    -14.756265
    5 Atom    -14.767374
    6 Atom    -14.719697
    7 Atom     -1.102284
    8 Atom    -14.754465
    9 Atom     -1.085088
   10 Atom    -14.764690
   11 Atom    -14.743066
   12 Atom     -1.084407
   13 Atom     -1.089525
   14 Atom     -1.107474
   15 Atom    -18.413573
   16 Atom    -11.472829
   17 Atom    -14.822493
   18 Atom     -1.123700
   19 Atom     -1.144010
   20 Atom     -1.133985
   21 Atom    -14.811605
   22 Atom     -1.107182
   23 Atom     -1.129250
   24 Atom     -1.127312
   25 Atom    -18.359569
   26 Atom     -1.011459
   27 Atom    -14.721934
   28 Atom    -14.772262
   29 Atom    -14.775357
   30 Atom    -14.770551
   31 Atom     -1.094366
   32 Atom    -14.771995
   33 Atom     -1.102229
   34 Atom    -14.779289
   35 Atom     -1.102388
   36 Atom     -1.104874
   37 Atom     -1.107437
 -----------------------------------------------------------------
 Unable to Open any file for archive entry.
 1\1\GINC-IRENE4045\SP\RwB97XD\GenECP\C17H17B1N2\PENASFRA\10-Apr-2024\0
 \\# wb97xd/genecp scrf=(solvent=toluene,pcm) nosymm pop=(chelpg) scfcy
 c=300\\me_phquinolinamine_chelpg\\0,1\C,0,-3.98015,0.99535,-0.156943\C
 ,0,-2.670916,0.579897,-0.195507\C,0,-1.641833,1.562875,-0.039653\C,0,-
 1.997743,2.918181,0.183131\C,0,-3.361814,3.292551,0.226871\C,0,-4.3488
 71,2.352775,0.0576\H,0,-4.776655,0.26631,-0.26297\C,0,-0.949526,3.8583
 56,0.323036\H,0,-3.618971,4.336293,0.381737\C,0,0.347529,3.43533,0.232
 589\C,0,0.597373,2.065977,-0.002993\H,0,-1.187476,4.903586,0.49339\H,0
 ,1.176158,4.126003,0.332297\H,0,1.622378,1.712562,-0.084599\N,0,-0.344
 587,1.163872,-0.13727\B,0,-2.371533,-0.964923,-0.308757\C,0,-1.331025,
 -1.677605,0.624316\H,0,-0.415696,-1.805384,0.029755\H,0,-1.04809,-1.10
 939,1.51224\H,0,-1.658451,-2.683076,0.910512\C,0,-3.223111,-1.827312,-
 1.314833\H,0,-4.121897,-2.155529,-0.769859\H,0,-3.572424,-1.283508,-2.
 196322\H,0,-2.712645,-2.742623,-1.627949\N,0,-5.695632,2.704798,0.1666
 34\H,0,-5.883106,3.565539,0.65466\C,0,-6.744983,2.225524,-0.628126\C,0
 ,-8.058414,2.414796,-0.183274\C,0,-6.533064,1.592189,-1.856193\C,0,-9.
 130412,1.979649,-0.947808\H,0,-8.23098,2.899314,0.772383\C,0,-7.614142
 ,1.140638,-2.603545\H,0,-5.52657,1.464341,-2.235544\C,0,-8.917409,1.32
 9871,-2.159982\H,0,-10.140237,2.138477,-0.585743\H,0,-7.429953,0.64875
 9,-3.552398\H,0,-9.755592,0.979978,-2.750804\\Version=AS64L-G16RevC.02
 \HF=-792.3571139\RMSD=3.277e-09\Dipole=-0.3980344,1.1191006,0.2439662\
 Quadrupole=4.4754504,4.4166449,-8.8920953,-4.9957358,-2.3747667,5.4123
 367\PG=C01 [X(C17H17B1N2)]\\@
 The archive entry for this job was punched.


 THE FIRST MORNING OF CREATION WROTE WHAT THE LAST DAWN OF
 RECKONING SHALL READ. -- OMAR KHAYYAM
 Job cpu time:       0 days  1 hours 46 minutes 15.0 seconds.
 Elapsed time:       0 days  0 hours  1 minutes  7.8 seconds.
 File lengths (MBytes):  RWF=    297 Int=      0 D2E=      0 Chk=     20 Scr=      1
 Normal termination of Gaussian 16 at Wed Apr 10 13:43:20 2024.
