 Entering Gaussian System, Link 0=/ccc/products/gaussian-16-C.02/system/default/g16/g16
 Input=me_quinoline_chelpg.gjf
 Output=me_quinoline_chelpg.log
 Initial command:
 /ccc/products/gaussian-16-C.02/system/default/g16/l1.exe "/ccc/scratch/cont003/gen7343/penasfra/flp/b-n_flp/me_quinoline/Reactant/Gau-3827840.inp" -scrdir="/ccc/scratch/cont003/gen7343/penasfra/flp/b-n_flp/me_quinoline/Reactant/"
 Entering Link 1 = /ccc/products/gaussian-16-C.02/system/default/g16/l1.exe PID=   3827889.
  
 Copyright (c) 1988-2021, Gaussian, Inc.  All Rights Reserved.
  
 This is part of the Gaussian(R) 16 program.  It is based on
 the Gaussian(R) 09 system (copyright 2009, Gaussian, Inc.),
 the Gaussian(R) 03 system (copyright 2003, Gaussian, Inc.),
 the Gaussian(R) 98 system (copyright 1998, Gaussian, Inc.),
 the Gaussian(R) 94 system (copyright 1995, Gaussian, Inc.),
 the Gaussian 92(TM) system (copyright 1992, Gaussian, Inc.),
 the Gaussian 90(TM) system (copyright 1990, Gaussian, Inc.),
 the Gaussian 88(TM) system (copyright 1988, Gaussian, Inc.),
 the Gaussian 86(TM) system (copyright 1986, Carnegie Mellon
 University), and the Gaussian 82(TM) system (copyright 1983,
 Carnegie Mellon University). Gaussian is a federally registered
 trademark of Gaussian, Inc.
  
 This software contains proprietary and confidential information,
 including trade secrets, belonging to Gaussian, Inc.
  
 This software is provided under written license and may be
 used, copied, transmitted, or stored only in accord with that
 written license.
  
 The following legend is applicable only to US Government
 contracts under FAR:
  
                    RESTRICTED RIGHTS LEGEND
  
 Use, reproduction and disclosure by the US Government is
 subject to restrictions as set forth in subparagraphs (a)
 and (c) of the Commercial Computer Software - Restricted
 Rights clause in FAR 52.227-19.
  
 Gaussian, Inc.
 340 Quinnipiac St., Bldg. 40, Wallingford CT 06492
  
  
 ---------------------------------------------------------------
 Warning -- This program may not be used in any manner that
 competes with the business of Gaussian, Inc. or will provide
 assistance to any competitor of Gaussian, Inc.  The licensee
 of this program is prohibited from giving any competitor of
 Gaussian, Inc. access to this program.  By using this program,
 the user acknowledges that Gaussian, Inc. is engaged in the
 business of creating and licensing software in the field of
 computational chemistry and represents and warrants to the
 licensee that it is not a competitor of Gaussian, Inc. and that
 it will not use this program in any manner prohibited above.
 ---------------------------------------------------------------
  

 Cite this work as:
 Gaussian 16, Revision C.02,
 M. J. Frisch, G. W. Trucks, H. B. Schlegel, G. E. Scuseria, 
 M. A. Robb, J. R. Cheeseman, G. Scalmani, V. Barone, 
 G. A. Petersson, H. Nakatsuji, X. Li, M. Caricato, A. V. Marenich, 
 J. Bloino, B. G. Janesko, R. Gomperts, B. Mennucci, H. P. Hratchian, 
 J. V. Ortiz, A. F. Izmaylov, J. L. Sonnenberg, D. Williams-Young, 
 F. Ding, F. Lipparini, F. Egidi, J. Goings, B. Peng, A. Petrone, 
 T. Henderson, D. Ranasinghe, V. G. Zakrzewski, J. Gao, N. Rega, 
 G. Zheng, W. Liang, M. Hada, M. Ehara, K. Toyota, R. Fukuda, 
 J. Hasegawa, M. Ishida, T. Nakajima, Y. Honda, O. Kitao, H. Nakai, 
 T. Vreven, K. Throssell, J. A. Montgomery, Jr., J. E. Peralta, 
 F. Ogliaro, M. J. Bearpark, J. J. Heyd, E. N. Brothers, K. N. Kudin, 
 V. N. Staroverov, T. A. Keith, R. Kobayashi, J. Normand, 
 K. Raghavachari, A. P. Rendell, J. C. Burant, S. S. Iyengar, 
 J. Tomasi, M. Cossi, J. M. Millam, M. Klene, C. Adamo, R. Cammi, 
 J. W. Ochterski, R. L. Martin, K. Morokuma, O. Farkas, 
 J. B. Foresman, and D. J. Fox, Gaussian, Inc., Wallingford CT, 2019.
 
 ******************************************
 Gaussian 16:  AS64L-G16RevC.02  7-Dec-2021
                10-Apr-2024 
 ******************************************
 %nprocshared=128
 Will use up to  128 processors via shared memory.
 %mem=30GB
 %chk=me_quinoline_chelpg.chk
 ----------------------------------------------------------------------
 # wb97xd/genecp scrf=(solvent=toluene,pcm) nosymm pop=(chelpg) scfcyc=
 300
 ----------------------------------------------------------------------
 1/38=1,172=1/1;
 2/12=2,15=1,17=6,18=5,40=1/2;
 3/5=7,11=2,16=1,17=8,25=1,30=1,70=2201,72=13,74=-58/1,2,3;
 4//1;
 5/5=2,7=300,38=5,53=13/2;
 6/7=2,8=2,9=2,10=2,15=8,20=3,28=1/1,2;
 99/5=1,9=1/99;
 -------------------
 me_quinoline_chelpg
 -------------------
 Symbolic Z-matrix:
 Charge =  0 Multiplicity = 1
 C                    -4.00364   0.05687   0.18484 
 C                    -2.63539   0.06599   0.00221 
 C                    -1.98634   1.33831  -0.08945 
 C                    -2.74146   2.53448   0.03991 
 C                    -4.13863   2.45951   0.2661 
 C                    -4.75739   1.2428    0.33492 
 H                    -4.52805  -0.89294   0.23175 
 C                    -2.05903   3.76859  -0.07453 
 H                    -4.70476   3.37955   0.37097 
 H                    -5.82754   1.18152   0.49767 
 C                    -0.71332   3.77067  -0.31038 
 C                    -0.05235   2.52841  -0.43715 
 H                    -2.61447   4.69623   0.02151 
 H                    -0.15376   4.69309  -0.40619 
 H                     1.01723   2.50956  -0.63333 
 N                    -0.64569   1.36495  -0.33728 
 B                    -1.86119  -1.30699  -0.00381 
 C                    -0.50462  -1.50317   0.76186 
 H                     0.2939   -1.3849    0.01615 
 H                    -0.30848  -0.76171   1.53873 
 H                    -0.40411  -2.51339   1.17307 
 C                    -2.51649  -2.55334  -0.71258 
 H                    -3.05775  -3.11945   0.06079 
 H                    -3.2349   -2.3137   -1.50026 
 H                    -1.76397  -3.24344  -1.10683 
 
                          Input orientation:                          
 ---------------------------------------------------------------------
 Center     Atomic      Atomic             Coordinates (Angstroms)
 Number     Number       Type             X           Y           Z
 ---------------------------------------------------------------------
      1          6           0       -4.003643    0.056865    0.184844
      2          6           0       -2.635393    0.065987    0.002210
      3          6           0       -1.986338    1.338312   -0.089452
      4          6           0       -2.741457    2.534483    0.039911
      5          6           0       -4.138634    2.459509    0.266102
      6          6           0       -4.757385    1.242802    0.334920
      7          1           0       -4.528053   -0.892935    0.231747
      8          6           0       -2.059030    3.768587   -0.074534
      9          1           0       -4.704759    3.379553    0.370972
     10          1           0       -5.827544    1.181524    0.497673
     11          6           0       -0.713320    3.770665   -0.310377
     12          6           0       -0.052350    2.528408   -0.437151
     13          1           0       -2.614466    4.696233    0.021510
     14          1           0       -0.153764    4.693089   -0.406191
     15          1           0        1.017228    2.509560   -0.633332
     16          7           0       -0.645687    1.364954   -0.337278
     17          5           0       -1.861189   -1.306989   -0.003813
     18          6           0       -0.504621   -1.503170    0.761861
     19          1           0        0.293900   -1.384903    0.016150
     20          1           0       -0.308475   -0.761707    1.538730
     21          1           0       -0.404109   -2.513393    1.173067
     22          6           0       -2.516487   -2.553338   -0.712584
     23          1           0       -3.057748   -3.119446    0.060790
     24          1           0       -3.234904   -2.313699   -1.500264
     25          1           0       -1.763967   -3.243440   -1.106831
 ---------------------------------------------------------------------
                    Distance matrix (angstroms):
                    1          2          3          4          5
     1  C    0.000000
     2  C    1.380415   0.000000
     3  C    2.405590   1.431253   0.000000
     4  C    2.784369   2.471061   1.420480   0.000000
     5  C    2.407805   2.838718   2.452729   1.417352   0.000000
     6  C    1.413187   2.449171   2.804980   2.412351   1.366735
     7  H    1.085968   2.134099   3.397344   3.869873   3.375160
     8  C    4.198295   3.747977   2.431408   1.414856   2.480821
     9  H    3.400950   3.924026   3.430520   2.162938   1.085346
    10  H    2.165487   3.417563   3.888980   3.400585   2.130560
    11  C    4.986359   4.185297   2.754219   2.400872   3.712712
    12  C    4.701927   3.595645   2.297288   2.731103   4.146930
    13  H    4.845640   4.630334   3.417966   2.165555   2.717692
    14  H    6.055201   5.266436   3.835776   3.399227   4.617364
    15  H    5.647501   4.440338   3.269409   3.818585   5.233966
    16  N    3.641370   2.400312   1.363625   2.429469   3.709824
    17  B    2.546723   1.576227   2.649644   3.941280   4.409775
    18  C    3.874250   2.753091   3.315756   4.671968   5.399505
    19  H    4.536081   3.268950   3.553384   4.957373   5.872762
    20  H    4.019619   2.908697   3.142655   4.362422   5.163907
    21  H    4.532048   3.605931   4.351211   5.676997   6.284824
    22  C    3.135310   2.717707   3.976719   5.148085   5.358901
    23  H    3.316483   3.213845   4.587167   5.662808   5.686405
    24  H    3.008342   2.877455   4.109318   5.110822   5.169167
    25  H    4.192444   3.597452   4.698613   5.971172   6.328319
                    6          7          8          9         10
     6  C    0.000000
     7  H    2.150491   0.000000
     8  C    3.718651   5.283907   0.000000
     9  H    2.137703   4.278407   2.711034   0.000000
    10  H    1.084197   2.462270   4.606736   2.471443   0.000000
    11  C    4.812584   6.049401   1.366222   4.068020   5.788945
    12  C    4.938242   5.673176   2.386692   4.798168   6.003404
    13  H    4.076336   5.911414   1.085477   2.495014   4.785789
    14  H    5.800608   7.123555   2.143534   4.800095   6.733486
    15  H    5.990688   6.563191   3.370574   5.874236   7.063551
    16  N    4.168073   4.527098   2.800719   4.586534   5.251898
    17  B    3.873516   2.709076   5.079923   5.494545   4.709157
    18  C    5.080221   4.103829   5.559421   6.452514   5.967486
    19  H    5.702800   4.851778   5.665948   6.914661   6.655110
    20  H    5.025934   4.419306   5.117678   6.151504   5.943069
    21  H    5.810551   4.529777   6.615024   7.339330   6.597137
    22  C    4.530957   2.774004   6.370487   6.415748   5.135856
    23  H    4.689682   2.673644   6.961375   6.711620   5.134294
    24  H    4.281886   2.586632   6.356854   6.170504   4.788540
    25  H    5.582613   3.867407   7.093745   7.395688   6.218311
                   11         12         13         14         15
    11  C    0.000000
    12  C    1.412854   0.000000
    13  H    2.140369   3.387370   0.000000
    14  H    1.083120   2.167276   2.497597   0.000000
    15  H    2.165521   1.087584   4.289471   2.488094   0.000000
    16  N    2.406812   1.309828   3.886160   3.364999   2.040357
    17  B    5.214802   4.262622   6.050351   6.251251   4.821579
    18  C    5.385776   4.230343   6.590308   6.315146   4.512714
    19  H    5.263173   3.954665   6.740834   6.109072   4.013960
    20  H    4.911771   3.846370   6.116262   5.793225   4.144458
    21  H    6.464178   5.304366   7.628268   7.381742   5.523887
    22  C    6.588338   5.654377   7.287302   7.628043   6.174655
    23  H    7.287506   6.417057   7.828338   8.347868   6.983763
    24  H    6.692810   5.891083   7.199992   7.732108   6.488145
    25  H    7.136937   6.057420   8.064422   8.128477   6.407516
                   16         17         18         19         20
    16  N    0.000000
    17  B    2.954306   0.000000
    18  C    3.074759   1.570038   0.000000
    19  H    2.927362   2.156589   1.098958   0.000000
    20  H    2.855837   2.255591   1.091680   1.751993   0.000000
    21  H    4.169062   2.227900   1.095328   1.760444   1.791999
    22  C    4.358183   1.576438   2.706371   3.129628   3.626799
    23  H    5.107479   2.172770   3.101984   3.774146   3.911744
    24  H    4.646404   2.267140   3.637116   3.951535   4.495348
    25  H    4.804171   2.230682   2.847192   2.991666   3.908510
                   21         22         23         24         25
    21  H    0.000000
    22  C    2.831857   0.000000
    23  H    2.940452   1.100704   0.000000
    24  H    3.898715   1.092698   1.765645   0.000000
    25  H    2.753201   1.094513   1.747164   1.784058   0.000000
 Symmetry turned off by external request.
 Stoichiometry    C11H12BN
 Framework group  C1[X(C11H12BN)]
 Deg. of freedom    69
 Full point group                 C1      NOp   1
 Rotational constants (GHZ):           1.2540992           0.7090253           0.4758504
 General basis read from cards:  (5D, 7F)
 ======================================================================================================
                                       Pseudopotential Parameters
 ======================================================================================================
  Center     Atomic      Valence      Angular      Power
  Number     Number     Electrons     Momentum     of R      Exponent        Coefficient   SO-Coeffient
 ======================================================================================================
    1          6
                                   No pseudopotential on this center.
    2          6
                                   No pseudopotential on this center.
    3          6
                                   No pseudopotential on this center.
    4          6
                                   No pseudopotential on this center.
    5          6
                                   No pseudopotential on this center.
    6          6
                                   No pseudopotential on this center.
    7          1
                                   No pseudopotential on this center.
    8          6
                                   No pseudopotential on this center.
    9          1
                                   No pseudopotential on this center.
   10          1
                                   No pseudopotential on this center.
   11          6
                                   No pseudopotential on this center.
   12          6
                                   No pseudopotential on this center.
   13          1
                                   No pseudopotential on this center.
   14          1
                                   No pseudopotential on this center.
   15          1
                                   No pseudopotential on this center.
   16          7
                                   No pseudopotential on this center.
   17          5
                                   No pseudopotential on this center.
   18          6
                                   No pseudopotential on this center.
   19          1
                                   No pseudopotential on this center.
   20          1
                                   No pseudopotential on this center.
   21          1
                                   No pseudopotential on this center.
   22          6
                                   No pseudopotential on this center.
   23          1
                                   No pseudopotential on this center.
   24          1
                                   No pseudopotential on this center.
   25          1
                                   No pseudopotential on this center.
 ======================================================================================================
   370 basis functions,   576 primitive gaussians,   383 cartesian basis functions
    45 alpha electrons       45 beta electrons
       nuclear repulsion energy       708.4572460801 Hartrees.
 NAtoms=   25 NActive=   25 NUniq=   25 SFac= 1.00D+00 NAtFMM=   60 NAOKFM=F Big=F
 Integral buffers will be    131072 words long.
 Raffenetti 2 integral format.
 Two-electron integral symmetry is turned off.
 Nuclear repulsion after empirical dispersion term =      708.4416666045 Hartrees.
 ------------------------------------------------------------------------------
 Polarizable Continuum Model (PCM)
 =================================
 Model                : PCM.
 Atomic radii         : UFF (Universal Force Field).
 Polarization charges : Total charges.
 Charge compensation  : None.
 Solution method      : On-the-fly selection.
 Cavity type          : Scaled VdW (van der Waals Surface) (Alpha=1.100).
 Cavity algorithm     : GePol (No added spheres)
                        Default sphere list used, NSphG=   25.
                        Lebedev-Laikov grids with approx.  5.0 points / Ang**2.
                        Smoothing algorithm: York/Karplus (Gamma=1.0000).
                        Polarization charges: spherical gaussians, with
                                              point-specific exponents (IZeta= 3).
                        Self-potential: point-specific (ISelfS= 7).
                        Self-field    : sphere-specific E.n sum rule (ISelfD= 2).
 Solvent              : Toluene, Eps=   2.374100 Eps(inf)=   2.238315
 ------------------------------------------------------------------------------
 One-electron integrals computed using PRISM.
   1 Symmetry operations used in ECPInt.
 ECPInt:  NShTT=    9591 NPrTT=   32401 LenC2=    9176 LenP2D=   22720.
 LDataN:  DoStor=T MaxTD1= 4 Len=   56
 Number of processors reduced to 118 by ecpmxn.
 NBasis=   370 RedAO= T EigKep=  1.15D-06  NBF=   370
 NBsUse=   368 1.00D-06 EigRej=  6.21D-07 NBFU=   368
 ExpMin= 3.15D-02 ExpMax= 6.29D+03 ExpMxC= 9.49D+02 IAcc=3 IRadAn=         5 AccDes= 0.00D+00
 Harris functional with IExCor= 4639 and IRadAn=       5 diagonalized for initial guess.
 HarFok:  IExCor= 4639 AccDes= 0.00D+00 IRadAn=         5 IDoV= 1 UseB2=F ITyADJ=14
 ICtDFT=  3500011 ScaDFX=  1.000000  1.000000  1.000000  1.000000
 FoFCou: FMM=F IPFlag=           0 FMFlag=      100000 FMFlg1=           0
         NFxFlg=           0 DoJE=T BraDBF=F KetDBF=T FulRan=T
         wScrn=  0.000000 ICntrl=       500 IOpCl=  0 I1Cent=   200000004 NGrid=           0
         NMat0=    1 NMatS0=      1 NMatT0=    0 NMatD0=    1 NMtDS0=    0 NMtDT0=    0
 Symmetry not used in FoFCou.
 Requested convergence on RMS density matrix=1.00D-08 within 300 cycles.
 Requested convergence on MAX density matrix=1.00D-06.
 Requested convergence on             energy=1.00D-06.
 No special actions if energy rises.
 Inv3:  Mode=1 IEnd=    11678187.
 Iteration    1 A*A^-1 deviation from unit magnitude is 3.55D-15 for   1971.
 Iteration    1 A*A^-1 deviation from orthogonality  is 1.92D-15 for   1954   1896.
 Iteration    1 A^-1*A deviation from unit magnitude is 3.33D-15 for   1971.
 Iteration    1 A^-1*A deviation from orthogonality  is 2.45D-15 for   1528    891.
 Error on total polarization charges =  0.00910
 SCF Done:  E(RwB97XD) =  -505.975898595     A.U. after   16 cycles
            NFock= 16  Conv=0.51D-08     -V/T= 2.0044

 **********************************************************************

            Population analysis using the SCF Density.

 **********************************************************************

 Alpha  occ. eigenvalues --  -14.43240 -10.32967 -10.32810 -10.31164 -10.30793
 Alpha  occ. eigenvalues --  -10.30041 -10.29969 -10.29762 -10.29590 -10.27587
 Alpha  occ. eigenvalues --  -10.24738 -10.24001  -6.84342  -1.05568  -0.95914
 Alpha  occ. eigenvalues --   -0.91628  -0.85849  -0.84922  -0.80166  -0.76714
 Alpha  occ. eigenvalues --   -0.74486  -0.73052  -0.70076  -0.62458  -0.61196
 Alpha  occ. eigenvalues --   -0.60472  -0.55096  -0.54179  -0.52124  -0.51434
 Alpha  occ. eigenvalues --   -0.50529  -0.50289  -0.49455  -0.48473  -0.46432
 Alpha  occ. eigenvalues --   -0.46174  -0.45705  -0.43786  -0.43669  -0.39983
 Alpha  occ. eigenvalues --   -0.38999  -0.38399  -0.34178  -0.33178  -0.31080
 Alpha virt. eigenvalues --   -0.00458   0.03676   0.03829   0.04414   0.04646
 Alpha virt. eigenvalues --    0.04911   0.06251   0.06375   0.06738   0.07883
 Alpha virt. eigenvalues --    0.08275   0.08678   0.09217   0.09512   0.09768
 Alpha virt. eigenvalues --    0.10648   0.11466   0.11800   0.12442   0.12848
 Alpha virt. eigenvalues --    0.13653   0.14254   0.14764   0.15036   0.15917
 Alpha virt. eigenvalues --    0.16090   0.16395   0.16793   0.17050   0.17600
 Alpha virt. eigenvalues --    0.17774   0.18422   0.18627   0.18835   0.19480
 Alpha virt. eigenvalues --    0.19514   0.20111   0.20452   0.20637   0.21257
 Alpha virt. eigenvalues --    0.21419   0.21853   0.22232   0.22611   0.23075
 Alpha virt. eigenvalues --    0.23161   0.23830   0.24313   0.24848   0.25247
 Alpha virt. eigenvalues --    0.25455   0.25934   0.26510   0.27451   0.28119
 Alpha virt. eigenvalues --    0.28525   0.28777   0.28970   0.29322   0.29559
 Alpha virt. eigenvalues --    0.30450   0.30768   0.31412   0.31885   0.32907
 Alpha virt. eigenvalues --    0.33138   0.34166   0.34290   0.35004   0.35376
 Alpha virt. eigenvalues --    0.35910   0.36134   0.36746   0.37313   0.37593
 Alpha virt. eigenvalues --    0.38123   0.38670   0.39324   0.40078   0.40270
 Alpha virt. eigenvalues --    0.40777   0.41328   0.42587   0.43404   0.44061
 Alpha virt. eigenvalues --    0.44544   0.45917   0.46143   0.48373   0.50158
 Alpha virt. eigenvalues --    0.53027   0.55358   0.56510   0.57027   0.58027
 Alpha virt. eigenvalues --    0.58647   0.59742   0.60457   0.61240   0.62712
 Alpha virt. eigenvalues --    0.63868   0.64371   0.65090   0.65488   0.65739
 Alpha virt. eigenvalues --    0.66349   0.67238   0.67985   0.68298   0.69061
 Alpha virt. eigenvalues --    0.69780   0.71068   0.71283   0.71624   0.73758
 Alpha virt. eigenvalues --    0.73958   0.75246   0.76676   0.77037   0.78599
 Alpha virt. eigenvalues --    0.79006   0.80083   0.80173   0.80832   0.82723
 Alpha virt. eigenvalues --    0.83043   0.83805   0.84507   0.85898   0.86528
 Alpha virt. eigenvalues --    0.86991   0.87768   0.89250   0.90792   0.91679
 Alpha virt. eigenvalues --    0.93220   0.93818   0.94720   0.96554   0.96861
 Alpha virt. eigenvalues --    0.98243   0.99603   1.00063   1.00894   1.01817
 Alpha virt. eigenvalues --    1.02520   1.04070   1.05247   1.06170   1.06867
 Alpha virt. eigenvalues --    1.08617   1.10931   1.11745   1.13578   1.14330
 Alpha virt. eigenvalues --    1.15764   1.16144   1.17835   1.18251   1.19356
 Alpha virt. eigenvalues --    1.20906   1.22489   1.23092   1.26384   1.28850
 Alpha virt. eigenvalues --    1.30410   1.32749   1.37793   1.39066   1.39624
 Alpha virt. eigenvalues --    1.42367   1.44061   1.47020   1.53284   1.53990
 Alpha virt. eigenvalues --    1.55232   1.57186   1.59104   1.59688   1.60962
 Alpha virt. eigenvalues --    1.61976   1.62926   1.63488   1.64845   1.66330
 Alpha virt. eigenvalues --    1.66969   1.67605   1.70223   1.71301   1.72195
 Alpha virt. eigenvalues --    1.74626   1.76289   1.77500   1.78734   1.79304
 Alpha virt. eigenvalues --    1.80382   1.81074   1.82127   1.82207   1.83244
 Alpha virt. eigenvalues --    1.85812   1.87493   1.87821   1.88264   1.91140
 Alpha virt. eigenvalues --    1.94149   1.96048   1.97675   1.98077   1.99685
 Alpha virt. eigenvalues --    2.00377   2.00831   2.01891   2.04130   2.04747
 Alpha virt. eigenvalues --    2.06376   2.07208   2.08410   2.11849   2.12702
 Alpha virt. eigenvalues --    2.16108   2.17208   2.18806   2.21801   2.23017
 Alpha virt. eigenvalues --    2.24039   2.25313   2.28808   2.31440   2.32448
 Alpha virt. eigenvalues --    2.35051   2.36012   2.38951   2.42737   2.44639
 Alpha virt. eigenvalues --    2.47378   2.50200   2.52630   2.54203   2.54804
 Alpha virt. eigenvalues --    2.57063   2.57481   2.58481   2.60428   2.60865
 Alpha virt. eigenvalues --    2.64178   2.66897   2.67554   2.67842   2.69373
 Alpha virt. eigenvalues --    2.71434   2.72174   2.75901   2.76785   2.77302
 Alpha virt. eigenvalues --    2.79986   2.80808   2.81410   2.81659   2.82756
 Alpha virt. eigenvalues --    2.83162   2.84106   2.84790   2.85500   2.85617
 Alpha virt. eigenvalues --    2.87385   2.89465   2.91104   2.93186   2.93541
 Alpha virt. eigenvalues --    2.96853   2.98162   3.02011   3.03515   3.06412
 Alpha virt. eigenvalues --    3.08914   3.12591   3.13516   3.14821   3.16406
 Alpha virt. eigenvalues --    3.20797   3.31462   3.35539   3.43842   3.45689
 Alpha virt. eigenvalues --    3.49300   3.51626   3.59561   3.61987   3.63398
 Alpha virt. eigenvalues --    3.68434   3.72220   3.77026   3.77788   3.85481
 Alpha virt. eigenvalues --    3.87791   3.94511   3.97670   4.04154   4.05555
 Alpha virt. eigenvalues --    4.08616   4.12919   4.14540   4.16757   4.27195
 Alpha virt. eigenvalues --    4.29264   4.58549   4.64756   4.93732   5.36200
 Alpha virt. eigenvalues --   14.80720  23.72516  23.96888  24.05969  24.08705
 Alpha virt. eigenvalues --   24.13295  24.14217  24.15345  24.18003  24.24705
 Alpha virt. eigenvalues --   24.29832  24.32279  35.84091
          Condensed to atoms (all electrons):
               1          2          3          4          5          6
     1  C    8.814544  -0.231204  -1.899493   0.513719  -0.290377  -0.748108
     2  C   -0.231204   9.070480  -0.284338  -1.460630   1.833061  -1.246268
     3  C   -1.899493  -0.284338  12.739804   1.568621  -3.424059   1.300436
     4  C    0.513719  -1.460630   1.568621  11.077632  -3.597391  -0.394620
     5  C   -0.290377   1.833061  -3.424059  -3.597391  10.877848  -0.693301
     6  C   -0.748108  -1.246268   1.300436  -0.394620  -0.693301   7.694986
     7  H    0.509034  -0.118911  -0.005457   0.057505  -0.025594  -0.083192
     8  C   -0.153121  -1.390966  -4.406639  -1.858996   1.483192   0.309017
     9  H    0.005307   0.028992   0.023026  -0.059974   0.377834  -0.044775
    10  H   -0.033467   0.015909  -0.001706  -0.021568  -0.019931   0.380591
    11  C    0.289868   0.418563   1.402223   0.159445  -0.349263  -0.409913
    12  C   -0.432027  -0.405573  -0.497074  -0.233016  -0.025175   0.316701
    13  H    0.000574  -0.019411   0.008261  -0.051677   0.025002   0.028847
    14  H    0.003573  -0.004779  -0.041312  -0.004774   0.011410  -0.000685
    15  H   -0.004153   0.019827   0.054129  -0.006116  -0.024173   0.008986
    16  N   -0.082563  -0.270033   0.153214  -0.032192   0.099713  -0.000621
    17  B   -0.017422   0.275753  -0.065246  -0.078891   0.070839   0.078135
    18  C    0.003376  -0.150356   0.133678  -0.070831  -0.017316   0.032191
    19  H    0.020026  -0.024507   0.022371   0.021460  -0.006248  -0.002229
    20  H    0.039570  -0.020999  -0.002708   0.006900  -0.008635   0.004792
    21  H   -0.015324   0.012235  -0.015489   0.004362   0.002435  -0.007423
    22  C   -0.005728  -0.032486  -0.068215  -0.046913   0.029215  -0.061298
    23  H   -0.042158  -0.013013   0.043173   0.010265  -0.014381   0.015760
    24  H   -0.019566   0.068505  -0.022957  -0.016642   0.012843  -0.024334
    25  H    0.003179   0.001640   0.006011   0.001980  -0.002604  -0.003811
               7          8          9         10         11         12
     1  C    0.509034  -0.153121   0.005307  -0.033467   0.289868  -0.432027
     2  C   -0.118911  -1.390966   0.028992   0.015909   0.418563  -0.405573
     3  C   -0.005457  -4.406639   0.023026  -0.001706   1.402223  -0.497074
     4  C    0.057505  -1.858996  -0.059974  -0.021568   0.159445  -0.233016
     5  C   -0.025594   1.483192   0.377834  -0.019931  -0.349263  -0.025175
     6  C   -0.083192   0.309017  -0.044775   0.380591  -0.409913   0.316701
     7  H    0.507993  -0.011863   0.001490  -0.010138   0.009165  -0.014528
     8  C   -0.011863  11.656956  -0.006288   0.007860  -1.386484   0.769794
     9  H    0.001490  -0.006288   0.452872  -0.007925   0.031744  -0.009247
    10  H   -0.010138   0.007860  -0.007925   0.450612  -0.004446   0.005248
    11  C    0.009165  -1.386484   0.031744  -0.004446   7.340157  -0.958412
    12  C   -0.014528   0.769794  -0.009247   0.005248  -0.958412   6.834425
    13  H   -0.000158   0.352235   0.004567   0.000509  -0.039450   0.009664
    14  H    0.000068   0.042152  -0.000048  -0.000117   0.337550  -0.009467
    15  H   -0.000474  -0.063105  -0.000244   0.000148  -0.073626   0.469729
    16  N    0.000161   0.048800  -0.001646   0.000595   0.014932   0.137925
    17  B   -0.036149  -0.029345   0.001036   0.002426  -0.007991   0.001119
    18  C   -0.000870  -0.018830  -0.000006   0.000179   0.016990  -0.026157
    19  H   -0.001172   0.008620  -0.000090   0.000017  -0.001752  -0.005268
    20  H   -0.000573   0.007027  -0.000188   0.000146   0.001319  -0.004052
    21  H    0.000667   0.000429   0.000027  -0.000192   0.001999  -0.001933
    22  C   -0.001961  -0.002634   0.000219   0.000027  -0.004039   0.003743
    23  H   -0.005643   0.004009  -0.000248   0.000822  -0.001325   0.001487
    24  H    0.002028  -0.000946   0.000271  -0.000857  -0.000811   0.002210
    25  H    0.002103   0.000050  -0.000008  -0.000012   0.000609  -0.002147
              13         14         15         16         17         18
     1  C    0.000574   0.003573  -0.004153  -0.082563  -0.017422   0.003376
     2  C   -0.019411  -0.004779   0.019827  -0.270033   0.275753  -0.150356
     3  C    0.008261  -0.041312   0.054129   0.153214  -0.065246   0.133678
     4  C   -0.051677  -0.004774  -0.006116  -0.032192  -0.078891  -0.070831
     5  C    0.025002   0.011410  -0.024173   0.099713   0.070839  -0.017316
     6  C    0.028847  -0.000685   0.008986  -0.000621   0.078135   0.032191
     7  H   -0.000158   0.000068  -0.000474   0.000161  -0.036149  -0.000870
     8  C    0.352235   0.042152  -0.063105   0.048800  -0.029345  -0.018830
     9  H    0.004567  -0.000048  -0.000244  -0.001646   0.001036  -0.000006
    10  H    0.000509  -0.000117   0.000148   0.000595   0.002426   0.000179
    11  C   -0.039450   0.337550  -0.073626   0.014932  -0.007991   0.016990
    12  C    0.009664  -0.009467   0.469729   0.137925   0.001119  -0.026157
    13  H    0.436944  -0.003508   0.000528   0.000472   0.000204   0.000120
    14  H   -0.003508   0.429735   0.000931   0.008686  -0.000666   0.000230
    15  H    0.000528   0.000931   0.480480  -0.105064  -0.004621   0.000447
    16  N    0.000472   0.008686  -0.105064   6.932473   0.033767  -0.036823
    17  B    0.000204  -0.000666  -0.004621   0.033767   4.328147   0.401201
    18  C    0.000120   0.000230   0.000447  -0.036823   0.401201   5.259329
    19  H    0.000068   0.000082   0.000068  -0.025152  -0.104609   0.416375
    20  H    0.000290  -0.000038   0.000262  -0.016921  -0.109514   0.410716
    21  H   -0.000015   0.000027  -0.000957   0.014023  -0.080182   0.398441
    22  C   -0.000041  -0.000029  -0.000185   0.016415   0.356535  -0.057598
    23  H    0.000023  -0.000006   0.000038  -0.001326  -0.099552  -0.007809
    24  H   -0.000051  -0.000005   0.000094   0.002462  -0.094638  -0.011171
    25  H   -0.000002   0.000009  -0.000323   0.002708  -0.094443   0.004145
              19         20         21         22         23         24
     1  C    0.020026   0.039570  -0.015324  -0.005728  -0.042158  -0.019566
     2  C   -0.024507  -0.020999   0.012235  -0.032486  -0.013013   0.068505
     3  C    0.022371  -0.002708  -0.015489  -0.068215   0.043173  -0.022957
     4  C    0.021460   0.006900   0.004362  -0.046913   0.010265  -0.016642
     5  C   -0.006248  -0.008635   0.002435   0.029215  -0.014381   0.012843
     6  C   -0.002229   0.004792  -0.007423  -0.061298   0.015760  -0.024334
     7  H   -0.001172  -0.000573   0.000667  -0.001961  -0.005643   0.002028
     8  C    0.008620   0.007027   0.000429  -0.002634   0.004009  -0.000946
     9  H   -0.000090  -0.000188   0.000027   0.000219  -0.000248   0.000271
    10  H    0.000017   0.000146  -0.000192   0.000027   0.000822  -0.000857
    11  C   -0.001752   0.001319   0.001999  -0.004039  -0.001325  -0.000811
    12  C   -0.005268  -0.004052  -0.001933   0.003743   0.001487   0.002210
    13  H    0.000068   0.000290  -0.000015  -0.000041   0.000023  -0.000051
    14  H    0.000082  -0.000038   0.000027  -0.000029  -0.000006  -0.000005
    15  H    0.000068   0.000262  -0.000957  -0.000185   0.000038   0.000094
    16  N   -0.025152  -0.016921   0.014023   0.016415  -0.001326   0.002462
    17  B   -0.104609  -0.109514  -0.080182   0.356535  -0.099552  -0.094638
    18  C    0.416375   0.410716   0.398441  -0.057598  -0.007809  -0.011171
    19  H    0.531829  -0.010207  -0.009540  -0.004955   0.003781  -0.006290
    20  H   -0.010207   0.571161  -0.025256  -0.011184  -0.004116  -0.005822
    21  H   -0.009540  -0.025256   0.559589   0.017722  -0.001033  -0.001894
    22  C   -0.004955  -0.011184   0.017722   5.337224   0.417089   0.431459
    23  H    0.003781  -0.004116  -0.001033   0.417089   0.546779  -0.021089
    24  H   -0.006290  -0.005822  -0.001894   0.431459  -0.021089   0.562998
    25  H   -0.000732  -0.002648   0.007646   0.410012  -0.003804  -0.010709
              25
     1  C    0.003179
     2  C    0.001640
     3  C    0.006011
     4  C    0.001980
     5  C   -0.002604
     6  C   -0.003811
     7  H    0.002103
     8  C    0.000050
     9  H   -0.000008
    10  H   -0.000012
    11  C    0.000609
    12  C   -0.002147
    13  H   -0.000002
    14  H    0.000009
    15  H   -0.000323
    16  N    0.002708
    17  B   -0.094443
    18  C    0.004145
    19  H   -0.000732
    20  H   -0.002648
    21  H    0.007646
    22  C    0.410012
    23  H   -0.003804
    24  H   -0.010709
    25  H    0.515963
 Mulliken charges:
               1
     1  C   -0.228057
     2  C   -0.071490
     3  C   -0.720254
     4  C    0.512340
     5  C   -0.324944
     6  C   -0.449865
     7  H    0.226470
     8  C    0.639077
     9  H    0.203302
    10  H    0.235272
    11  C   -0.787054
    12  C    0.072031
    13  H    0.246006
    14  H    0.230981
    15  H    0.247375
    16  N    0.105995
    17  B    0.274106
    18  C   -0.679651
    19  H    0.178055
    20  H    0.180680
    21  H    0.139639
    22  C   -0.722395
    23  H    0.172279
    24  H    0.154913
    25  H    0.165190
 Sum of Mulliken charges =  -0.00000
 Mulliken charges with hydrogens summed into heavy atoms:
               1
     1  C   -0.001587
     2  C   -0.071490
     3  C   -0.720254
     4  C    0.512340
     5  C   -0.121642
     6  C   -0.214593
     8  C    0.885084
    11  C   -0.556072
    12  C    0.319406
    16  N    0.105995
    17  B    0.274106
    18  C   -0.181278
    22  C   -0.230013
 Electronic spatial extent (au):  <R**2>=           4213.8586
 Charge=             -0.0000 electrons
 Dipole moment (field-independent basis, Debye):
    X=             -1.2739    Y=              2.1238    Z=              0.2070  Tot=              2.4852
 Quadrupole moment (field-independent basis, Debye-Ang):
   XX=            -65.6141   YY=            -62.6473   ZZ=            -81.5060
   XY=             -2.8885   XZ=             -2.8837   YZ=             -0.5562
 Traceless Quadrupole moment (field-independent basis, Debye-Ang):
   XX=              4.3083   YY=              7.2752   ZZ=            -11.5835
   XY=             -2.8885   XZ=             -2.8837   YZ=             -0.5562
 Octapole moment (field-independent basis, Debye-Ang**2):
  XXX=            437.9393  YYY=           -146.0344  ZZZ=              4.9248  XYY=            142.4476
  XXY=            -49.9346  XXZ=             13.0109  XZZ=            180.1377  YZZ=            -80.8836
  YYZ=              2.0206  XYZ=             -1.6934
 Hexadecapole moment (field-independent basis, Debye-Ang**3):
 XXXX=          -2944.0846 YYYY=          -2153.6852 ZZZZ=           -190.4436 XXXY=            340.7911
 XXXZ=            -45.6571 YYYX=            309.3316 YYYZ=              0.1859 ZZZX=             27.7258
 ZZZY=             19.8995 XXYY=           -851.9671 XXZZ=           -634.3088 YYZZ=           -475.6218
 XXYZ=             13.9041 YYXZ=            -19.6863 ZZXY=            168.3932
 N-N= 7.084416666045D+02 E-N=-2.591301315262D+03  KE= 5.037462364108D+02
 Breneman (CHELPG) radii used.
 Generate Potential Derived Charges using the Breneman model, NDens= 1.
 Grid spacing= 0.300 Box extension= 2.800
 NStep X,Y,Z=   42     47     30   Total possible points=       59220
 Number of Points to Fit=   16042

 **********************************************************************

            Electrostatic Properties Using The SCF Density.

 **********************************************************************

       Atomic Center    1 is at  -4.003643  0.056865  0.184844
       Atomic Center    2 is at  -2.635393  0.065987  0.002210
       Atomic Center    3 is at  -1.986338  1.338312 -0.089452
       Atomic Center    4 is at  -2.741457  2.534483  0.039911
       Atomic Center    5 is at  -4.138634  2.459509  0.266102
       Atomic Center    6 is at  -4.757385  1.242802  0.334920
       Atomic Center    7 is at  -4.528053 -0.892935  0.231747
       Atomic Center    8 is at  -2.059030  3.768587 -0.074534
       Atomic Center    9 is at  -4.704759  3.379553  0.370972
       Atomic Center   10 is at  -5.827544  1.181524  0.497673
       Atomic Center   11 is at  -0.713320  3.770665 -0.310377
       Atomic Center   12 is at  -0.052350  2.528408 -0.437151
       Atomic Center   13 is at  -2.614466  4.696233  0.021510
       Atomic Center   14 is at  -0.153764  4.693089 -0.406191
       Atomic Center   15 is at   1.017228  2.509560 -0.633332
       Atomic Center   16 is at  -0.645687  1.364954 -0.337278
       Atomic Center   17 is at  -1.861189 -1.306989 -0.003813
       Atomic Center   18 is at  -0.504621 -1.503170  0.761861
       Atomic Center   19 is at   0.293900 -1.384903  0.016150
       Atomic Center   20 is at  -0.308475 -0.761707  1.538730
       Atomic Center   21 is at  -0.404109 -2.513393  1.173067
       Atomic Center   22 is at  -2.516487 -2.553338 -0.712584
       Atomic Center   23 is at  -3.057748 -3.119446  0.060790
       Atomic Center   24 is at  -3.234904 -2.313699 -1.500264
       Atomic Center   25 is at  -1.763967 -3.243440 -1.106831
   16042 points will be used for fitting atomic charges
 Fitting point charges to electrostatic potential
 Charges from ESP fit, RMS=   0.00383 RRMS=   0.32461:
 ESP charges:
               1
     1  C   -0.011038
     2  C   -0.424524
     3  C    0.541242
     4  C   -0.030098
     5  C   -0.178250
     6  C   -0.127888
     7  H    0.089351
     8  C   -0.043233
     9  H    0.128544
    10  H    0.111680
    11  C   -0.286763
    12  C    0.328552
    13  H    0.120632
    14  H    0.135098
    15  H    0.039272
    16  N   -0.615626
    17  B    0.636124
    18  C   -0.484155
    19  H    0.101756
    20  H    0.083059
    21  H    0.078257
    22  C   -0.392477
    23  H    0.081072
    24  H    0.049028
    25  H    0.070387
 Sum of ESP charges =   0.00000
 ESP charges with hydrogens summed into heavy atoms:
               1
     1  C    0.078312
     2  C   -0.424524
     3  C    0.541242
     4  C   -0.030098
     5  C   -0.049706
     6  C   -0.016208
     8  C    0.077399
    11  C   -0.151665
    12  C    0.367824
    16  N   -0.615626
    17  B    0.636124
    18  C   -0.221084
    22  C   -0.191990
 Charge=   0.00000 Dipole=    -1.3255     2.1948     0.2080 Tot=     2.5724
 -----------------------------------------------------------------

              Electrostatic Properties (Atomic Units)

 -----------------------------------------------------------------
    Center     Electric         -------- Electric Field --------
               Potential          X             Y             Z
 -----------------------------------------------------------------
    1 Atom    -14.767461
    2 Atom    -14.792593
    3 Atom    -14.737458
    4 Atom    -14.756274
    5 Atom    -14.762264
    6 Atom    -14.766931
    7 Atom     -1.103969
    8 Atom    -14.750392
    9 Atom     -1.090164
   10 Atom     -1.097002
   11 Atom    -14.761667
   12 Atom    -14.737412
   13 Atom     -1.081196
   14 Atom     -1.086252
   15 Atom     -1.103369
   16 Atom    -18.411607
   17 Atom    -11.473864
   18 Atom    -14.823118
   19 Atom     -1.124281
   20 Atom     -1.143881
   21 Atom     -1.135931
   22 Atom    -14.811919
   23 Atom     -1.108385
   24 Atom     -1.131216
   25 Atom     -1.125582
 -----------------------------------------------------------------
 Unable to Open any file for archive entry.
 1\1\GINC-IRENE4899\SP\RwB97XD\GenECP\C11H12B1N1\PENASFRA\10-Apr-2024\0
 \\# wb97xd/genecp scrf=(solvent=toluene,pcm) nosymm pop=(chelpg) scfcy
 c=300\\me_quinoline_chelpg\\0,1\C,0,-4.003643,0.056865,0.184844\C,0,-2
 .635393,0.065987,0.00221\C,0,-1.986338,1.338312,-0.089452\C,0,-2.74145
 7,2.534483,0.039911\C,0,-4.138634,2.459509,0.266102\C,0,-4.757385,1.24
 2802,0.33492\H,0,-4.528053,-0.892935,0.231747\C,0,-2.05903,3.768587,-0
 .074534\H,0,-4.704759,3.379553,0.370972\H,0,-5.827544,1.181524,0.49767
 3\C,0,-0.71332,3.770665,-0.310377\C,0,-0.05235,2.528408,-0.437151\H,0,
 -2.614466,4.696233,0.02151\H,0,-0.153764,4.693089,-0.406191\H,0,1.0172
 28,2.50956,-0.633332\N,0,-0.645687,1.364954,-0.337278\B,0,-1.861189,-1
 .306989,-0.003813\C,0,-0.504621,-1.50317,0.761861\H,0,0.2939,-1.384903
 ,0.01615\H,0,-0.308475,-0.761707,1.53873\H,0,-0.404109,-2.513393,1.173
 067\C,0,-2.516487,-2.553338,-0.712584\H,0,-3.057748,-3.119446,0.06079\
 H,0,-3.234904,-2.313699,-1.500264\H,0,-1.763967,-3.24344,-1.106831\\Ve
 rsion=AS64L-G16RevC.02\HF=-505.9758986\RMSD=5.056e-09\Dipole=-0.501207
 9,0.8355704,0.0814402\Quadrupole=3.2031345,5.408942,-8.6120765,-2.1475
 238,-2.1439242,-0.4135086\PG=C01 [X(C11H12B1N1)]\\@
 The archive entry for this job was punched.


 Statistics are no substitute for judgment.
                            -- Henry Clay
 Job cpu time:       0 days  0 hours 42 minutes 37.6 seconds.
 Elapsed time:       0 days  0 hours  0 minutes 26.6 seconds.
 File lengths (MBytes):  RWF=    141 Int=      0 D2E=      0 Chk=     10 Scr=      1
 Normal termination of Gaussian 16 at Wed Apr 10 14:19:43 2024.
