 Entering Gaussian System, Link 0=/ccc/products/gaussian-16-C.02/system/default/g16/g16
 Input=me_tribenzooxepine_chelpg.gjf
 Output=me_tribenzooxepine_chelpg.log
 Initial command:
 /ccc/products/gaussian-16-C.02/system/default/g16/l1.exe "/ccc/scratch/cont003/gen7343/penasfra/flp/b-n_flp/me_tribenzooxepine/reactant/Gau-85419.inp" -scrdir="/ccc/scratch/cont003/gen7343/penasfra/flp/b-n_flp/me_tribenzooxepine/reactant/"
 Entering Link 1 = /ccc/products/gaussian-16-C.02/system/default/g16/l1.exe PID=     85469.
  
 Copyright (c) 1988-2021, Gaussian, Inc.  All Rights Reserved.
  
 This is part of the Gaussian(R) 16 program.  It is based on
 the Gaussian(R) 09 system (copyright 2009, Gaussian, Inc.),
 the Gaussian(R) 03 system (copyright 2003, Gaussian, Inc.),
 the Gaussian(R) 98 system (copyright 1998, Gaussian, Inc.),
 the Gaussian(R) 94 system (copyright 1995, Gaussian, Inc.),
 the Gaussian 92(TM) system (copyright 1992, Gaussian, Inc.),
 the Gaussian 90(TM) system (copyright 1990, Gaussian, Inc.),
 the Gaussian 88(TM) system (copyright 1988, Gaussian, Inc.),
 the Gaussian 86(TM) system (copyright 1986, Carnegie Mellon
 University), and the Gaussian 82(TM) system (copyright 1983,
 Carnegie Mellon University). Gaussian is a federally registered
 trademark of Gaussian, Inc.
  
 This software contains proprietary and confidential information,
 including trade secrets, belonging to Gaussian, Inc.
  
 This software is provided under written license and may be
 used, copied, transmitted, or stored only in accord with that
 written license.
  
 The following legend is applicable only to US Government
 contracts under FAR:
  
                    RESTRICTED RIGHTS LEGEND
  
 Use, reproduction and disclosure by the US Government is
 subject to restrictions as set forth in subparagraphs (a)
 and (c) of the Commercial Computer Software - Restricted
 Rights clause in FAR 52.227-19.
  
 Gaussian, Inc.
 340 Quinnipiac St., Bldg. 40, Wallingford CT 06492
  
  
 ---------------------------------------------------------------
 Warning -- This program may not be used in any manner that
 competes with the business of Gaussian, Inc. or will provide
 assistance to any competitor of Gaussian, Inc.  The licensee
 of this program is prohibited from giving any competitor of
 Gaussian, Inc. access to this program.  By using this program,
 the user acknowledges that Gaussian, Inc. is engaged in the
 business of creating and licensing software in the field of
 computational chemistry and represents and warrants to the
 licensee that it is not a competitor of Gaussian, Inc. and that
 it will not use this program in any manner prohibited above.
 ---------------------------------------------------------------
  

 Cite this work as:
 Gaussian 16, Revision C.02,
 M. J. Frisch, G. W. Trucks, H. B. Schlegel, G. E. Scuseria, 
 M. A. Robb, J. R. Cheeseman, G. Scalmani, V. Barone, 
 G. A. Petersson, H. Nakatsuji, X. Li, M. Caricato, A. V. Marenich, 
 J. Bloino, B. G. Janesko, R. Gomperts, B. Mennucci, H. P. Hratchian, 
 J. V. Ortiz, A. F. Izmaylov, J. L. Sonnenberg, D. Williams-Young, 
 F. Ding, F. Lipparini, F. Egidi, J. Goings, B. Peng, A. Petrone, 
 T. Henderson, D. Ranasinghe, V. G. Zakrzewski, J. Gao, N. Rega, 
 G. Zheng, W. Liang, M. Hada, M. Ehara, K. Toyota, R. Fukuda, 
 J. Hasegawa, M. Ishida, T. Nakajima, Y. Honda, O. Kitao, H. Nakai, 
 T. Vreven, K. Throssell, J. A. Montgomery, Jr., J. E. Peralta, 
 F. Ogliaro, M. J. Bearpark, J. J. Heyd, E. N. Brothers, K. N. Kudin, 
 V. N. Staroverov, T. A. Keith, R. Kobayashi, J. Normand, 
 K. Raghavachari, A. P. Rendell, J. C. Burant, S. S. Iyengar, 
 J. Tomasi, M. Cossi, J. M. Millam, M. Klene, C. Adamo, R. Cammi, 
 J. W. Ochterski, R. L. Martin, K. Morokuma, O. Farkas, 
 J. B. Foresman, and D. J. Fox, Gaussian, Inc., Wallingford CT, 2019.
 
 ******************************************
 Gaussian 16:  AS64L-G16RevC.02  7-Dec-2021
                10-Apr-2024 
 ******************************************
 %nprocshared=128
 Will use up to  128 processors via shared memory.
 %mem=30GB
 %chk=me_tribenzooxepine_chelpg.chk
 ----------------------------------------------------------------------
 # wb97xd/genecp scrf=(solvent=toluene,pcm) nosymm pop=(chelpg) scfcyc=
 300
 ----------------------------------------------------------------------
 1/38=1,172=1/1;
 2/12=2,15=1,17=6,18=5,40=1/2;
 3/5=7,11=2,16=1,17=8,25=1,30=1,70=2201,72=13,74=-58/1,2,3;
 4//1;
 5/5=2,7=300,38=5,53=13/2;
 6/7=2,8=2,9=2,10=2,15=8,20=3,28=1/1,2;
 99/5=1,9=1/99;
 -------------------------
 me_tribenzooxepine_chelpg
 -------------------------
 Symbolic Z-matrix:
 Charge =  0 Multiplicity = 1
 C                     0.06902   0.19094   0.91583 
 C                     0.9122    0.95712   1.74355 
 C                     2.14805   1.60159   1.23485 
 C                     0.37636  -0.04406  -0.51567 
 C                     2.14247   2.25659   0.00677 
 C                     0.83633   0.99188  -1.32969 
 O                     0.98856   2.2469   -0.74894 
 C                     0.58713   1.09885   3.09583 
 C                    -0.54396   0.50436   3.63333 
 H                    -0.77948   0.63915   4.68287 
 C                    -1.37823  -0.24943   2.81587 
 H                    -2.27273  -0.70953   3.22007 
 C                    -1.06874  -0.40021   1.47306 
 H                    -1.72903  -0.97477   0.83272 
 H                     1.22705   1.70292   3.72964 
 C                     0.23062  -1.3065   -1.09392 
 C                     0.55558  -1.51246  -2.42684 
 H                     0.44933  -2.49996  -2.86173 
 C                     1.04445  -0.46212  -3.19468 
 H                     1.31588  -0.64855  -4.22906 
 C                     1.19178   0.82621  -2.66554 
 H                    -0.11021  -2.13587  -0.48391 
 C                     3.34348   1.56803   1.95953 
 C                     4.48163   2.17493   1.45665 
 H                     5.40886   2.13081   2.01641 
 C                     4.4499    2.84466   0.23679 
 H                     5.35021   3.32034  -0.13045 
 C                     3.27458   2.8991   -0.51014 
 H                     3.38059   1.03842   2.90456 
 B                     1.68002   2.011    -3.59726 
 N                     3.15799   3.56759  -1.75909 
 C                     2.34669   4.78313  -1.6497 
 H                     2.83134   5.52702  -0.99963 
 H                     2.21717   5.21743  -2.64187 
 H                     1.36375   4.54183  -1.24897 
 C                     4.4177    3.84628  -2.43015 
 H                     4.19912   4.21459  -3.43382 
 H                     5.02093   4.60927  -1.91401 
 H                     5.00454   2.93123  -2.52276 
 C                     0.68183   3.18764  -3.89942 
 H                     1.14689   4.06384  -4.35909 
 H                    -0.0337    2.78751  -4.63416 
 H                     0.09267   3.49433  -3.0324 
 C                     2.93761   1.75403  -4.51253 
 H                     2.61949   1.08136  -5.32291 
 H                     3.32741   2.65528  -4.99193 
 H                     3.75033   1.23957  -3.99214 
 
                          Input orientation:                          
 ---------------------------------------------------------------------
 Center     Atomic      Atomic             Coordinates (Angstroms)
 Number     Number       Type             X           Y           Z
 ---------------------------------------------------------------------
      1          6           0        0.069020    0.190940    0.915828
      2          6           0        0.912202    0.957123    1.743545
      3          6           0        2.148054    1.601593    1.234848
      4          6           0        0.376364   -0.044060   -0.515665
      5          6           0        2.142465    2.256587    0.006765
      6          6           0        0.836333    0.991875   -1.329685
      7          8           0        0.988558    2.246904   -0.748938
      8          6           0        0.587126    1.098851    3.095827
      9          6           0       -0.543961    0.504364    3.633331
     10          1           0       -0.779483    0.639148    4.682866
     11          6           0       -1.378228   -0.249426    2.815870
     12          1           0       -2.272731   -0.709534    3.220072
     13          6           0       -1.068739   -0.400210    1.473063
     14          1           0       -1.729027   -0.974774    0.832724
     15          1           0        1.227053    1.702924    3.729635
     16          6           0        0.230616   -1.306498   -1.093921
     17          6           0        0.555582   -1.512462   -2.426844
     18          1           0        0.449326   -2.499955   -2.861726
     19          6           0        1.044453   -0.462122   -3.194677
     20          1           0        1.315881   -0.648546   -4.229057
     21          6           0        1.191775    0.826208   -2.665539
     22          1           0       -0.110207   -2.135867   -0.483907
     23          6           0        3.343478    1.568026    1.959527
     24          6           0        4.481629    2.174930    1.456650
     25          1           0        5.408858    2.130814    2.016410
     26          6           0        4.449903    2.844655    0.236794
     27          1           0        5.350212    3.320340   -0.130451
     28          6           0        3.274583    2.899098   -0.510140
     29          1           0        3.380590    1.038425    2.904556
     30          5           0        1.680019    2.010998   -3.597260
     31          7           0        3.157993    3.567585   -1.759091
     32          6           0        2.346694    4.783131   -1.649703
     33          1           0        2.831344    5.527023   -0.999627
     34          1           0        2.217172    5.217434   -2.641871
     35          1           0        1.363750    4.541829   -1.248967
     36          6           0        4.417700    3.846278   -2.430146
     37          1           0        4.199123    4.214588   -3.433821
     38          1           0        5.020934    4.609270   -1.914005
     39          1           0        5.004539    2.931230   -2.522760
     40          6           0        0.681830    3.187637   -3.899418
     41          1           0        1.146890    4.063836   -4.359087
     42          1           0       -0.033704    2.787510   -4.634162
     43          1           0        0.092669    3.494331   -3.032396
     44          6           0        2.937606    1.754031   -4.512526
     45          1           0        2.619494    1.081357   -5.322908
     46          1           0        3.327406    2.655275   -4.991932
     47          1           0        3.750329    1.239571   -3.992135
 ---------------------------------------------------------------------
                    Distance matrix (angstroms):
                    1          2          3          4          5
     1  C    0.000000
     2  C    1.408229   0.000000
     3  C    2.532607   1.483727   0.000000
     4  C    1.482855   2.528541   2.985189   0.000000
     5  C    3.064713   2.493704   1.391846   2.947036   0.000000
     6  C    2.504515   3.074363   2.944350   1.395479   2.256452
     7  O    2.800711   2.807461   2.386685   2.382795   1.379377
     8  C    2.417671   1.398009   2.480421   3.793882   3.647155
     9  C    2.803356   2.428311   3.768763   4.285083   4.841400
    10  H    3.887341   3.406246   4.624457   5.369123   5.746287
    11  C    2.428705   2.802090   4.284923   3.770927   5.154265
    12  H    3.406493   3.886087   5.368963   4.627774   6.214272
    13  C    1.398022   2.416535   3.796277   2.483990   4.418193
    14  H    2.144474   3.396750   4.672379   2.667780   5.110025
    15  H    3.397741   2.144739   2.661292   4.668854   3.873536
    16  C    2.511479   3.693204   4.190075   1.396199   4.190734
    17  C    3.783091   4.859853   5.063723   2.416801   4.758821
    18  H    4.653543   5.777038   6.040719   3.397167   5.806862
    19  C    4.274835   5.139823   5.009745   2.792530   4.341226
    20  H    5.359966   6.197831   5.967403   3.877806   5.202425
    21  C    3.806617   4.419878   4.090075   2.458499   3.176634
    22  H    2.721289   3.946321   4.692810   2.147887   4.960740
    23  C    3.702398   2.516139   1.398329   4.186784   2.393706
    24  C    4.868246   3.782350   2.413190   5.066275   2.753275
    25  H    5.786904   4.655311   3.394666   6.038831   3.837162
    26  C    5.166762   4.283504   2.799969   5.050207   2.392281
    27  H    6.227265   5.365873   3.882261   6.017204   3.382313
    28  C    4.432058   3.798843   2.448994   4.130603   1.400608
    29  H    3.954714   2.729010   2.150402   4.679216   3.378471
    30  B    5.126002   5.497672   4.871954   3.926704   3.641863
    31  N    5.300819   4.911878   3.721394   4.725203   2.422449
    32  C    5.732187   5.311331   4.299102   5.335730   3.028039
    33  H    6.306598   5.664988   4.568234   6.107218   3.490434
    34  H    6.522072   6.251805   5.301701   5.965957   3.973345
    35  H    5.029205   4.691390   3.928035   4.747951   2.721322
    36  C    6.593031   6.168908   4.860256   5.927256   3.693555
    37  H    7.222669   6.944066   5.729843   6.423800   4.461081
    38  H    7.214641   6.602842   5.216784   6.721671   4.184502
    39  H    6.610025   6.232630   4.903780   5.856687   3.878802
    40  C    5.704588   6.072174   5.570102   4.689025   4.273005
    41  H    6.632183   6.851924   6.193309   5.678064   4.828870
    42  H    6.128223   6.702253   6.372735   5.014774   5.153231
    43  H    5.147953   5.469796   5.100631   4.351394   3.869131
    44  C    6.335540   6.623877   5.803356   5.076218   4.616146
    45  H    6.798499   7.270835   6.595230   5.422894   5.478516
    46  H    7.182733   7.354154   6.424477   6.002668   5.152670
    47  H    6.224128   6.405682   5.479023   5.011706   4.428403
                    6          7          8          9         10
     6  C    0.000000
     7  O    1.391236   0.000000
     8  C    4.433814   4.032542   0.000000
     9  C    5.174399   4.958764   1.386248   0.000000
    10  H    6.235868   5.934252   2.144211   1.084048   0.000000
    11  C    4.861145   4.953907   2.399759   1.390123   2.152611
    12  H    5.767266   5.927020   3.385923   2.152435   2.487669
    13  C    3.663686   4.022061   2.760876   2.400084   3.386262
    14  H    3.889061   4.501792   3.845272   3.381661   4.281352
    15  H    5.123961   4.517788   1.084492   2.140633   2.463018
    16  C    2.388513   3.649679   4.844253   5.121143   6.178763
    17  C    2.748506   4.139525   6.108997   6.480918   7.547172
    18  H    3.832728   5.223726   6.961525   7.224840   8.263462
    19  C    2.373945   3.650149   6.497401   7.076641   8.160590
    20  H    3.365606   4.538943   7.565607   8.161211   9.245057
    21  C    1.392225   2.394375   5.799420   6.541569   7.610513
    22  H    3.375507   4.526169   4.874851   4.910256   5.902896
    23  C    4.175720   3.652712   3.018075   4.364078   5.027743
    24  C    4.738298   4.131748   4.360275   5.725844   6.359748
    25  H    5.779405   5.215331   5.047691   6.379328   6.901494
    26  C    4.352532   3.648271   5.113017   6.477044   7.209597
    27  H    5.218718   4.534183   6.166917   7.539035   8.241964
    28  C    3.202221   2.389203   4.844204   6.122449   6.964922
    29  H    4.940061   4.531033   2.800657   4.027212   4.541808
    30  B    2.625322   2.940529   6.842795   7.713461   8.745948
    31  N    3.494106   2.733323   6.022809   7.222604   8.098041
    32  C    4.093559   3.014690   6.260196   7.387434   8.188224
    33  H    4.965539   3.770661   6.435679   7.621292   8.319863
    34  H    4.635073   3.730514   7.248514   8.319558   9.142889
    35  H    3.589827   2.378546   5.597721   6.616443   7.416941
    36  C    4.710076   4.140468   7.263472   8.517759   9.375038
    37  H    5.110932   4.624728   8.086448   9.284786  10.171081
    38  H    5.562181   4.816452   7.555138   8.865170   9.639783
    39  H    4.749575   4.443293   7.378324   8.635565   9.519958
    40  C    3.383603   3.302209   7.301058   8.089798   9.071154
    41  H    4.325583   4.044686   8.042401   8.911092   9.858819
    42  H    3.860160   4.053670   7.936607   8.592122   9.590550
    43  H    3.116817   2.751885   6.598328   7.333288   8.272725
    44  C    3.889307   4.266885   7.990060   8.946394   9.980729
    45  H    4.374186   4.993962   8.660596   9.516017  10.576583
    46  H    4.731215   4.862096   8.680060   9.695827  10.702010
    47  H    3.954917   4.377262   7.763045   8.782322   9.804863
                   11         12         13         14         15
    11  C    0.000000
    12  H    1.084073   0.000000
    13  C    1.386236   2.144136   0.000000
    14  H    2.140574   2.462803   1.084499   0.000000
    15  H    3.381438   4.281133   3.845250   4.929561   0.000000
    16  C    4.358009   5.023310   3.016469   2.768068   5.772019
    17  C    5.728956   6.366452   4.368615   4.016632   6.977952
    18  H    6.374946   6.899527   5.050133   4.551962   7.855895
    19  C    6.483926   7.225921   5.124179   4.916804   7.257194
    20  H    7.553047   8.268699   6.185649   5.916039   8.299282
    21  C    6.148801   7.000123   4.872582   4.900251   6.455085
    22  H    4.006877   4.520000   2.785861   2.387935   5.854786
    23  C    5.131370   6.190158   4.855745   5.784965   2.762378
    24  C    6.485592   7.553222   6.118676   6.991578   3.997689
    25  H    7.236658   8.277873   6.975713   7.873703   4.539353
    26  C    7.084637   8.168599   6.520193   7.288508   4.887765
    27  H    8.166758   9.250684   7.590565   8.336146   5.875095
    28  C    6.528721   7.596670   5.803703   6.468870   4.857870
    29  H    4.930799   5.925787   4.890334   5.869723   2.400007
    30  B    7.455912   8.336759   6.251221   6.337285   7.347345
    31  N    7.488467   8.519306   6.637430   7.157758   6.109959
    32  C    7.690450   8.673129   6.948660   7.478463   6.299091
    33  H    8.102214   9.096817   7.513783   8.150329   6.289945
    34  H    8.520587   9.468398   7.699858   8.123345   7.343583
    35  H    6.855470   7.795711   6.144119   6.658199   5.732761
    36  C    8.825432   9.871284   7.960447   8.465880   7.260654
    37  H    9.491728  10.507434   8.551271   8.959679   8.152101
    38  H    9.323514  10.384892   8.582030   9.180852   7.395340
    39  H    8.908269   9.959615   7.996862   8.476854   7.407468
    40  C    7.819996   8.637390   6.693332   6.747671   7.791283
    41  H    8.744167   9.587623   7.671420   7.785460   8.426610
    42  H    8.156819   8.884343   6.966423   6.849507   8.527540
    43  H    7.097991   7.896895   6.067576   6.183092   7.086680
    44  C    8.737600   9.644161   7.517901   7.602338   8.417946
    45  H    9.164741  10.006181   7.872949   7.812113   9.180075
    46  H    9.567761  10.493831   8.393941   8.524751   9.021318
    47  H    8.652638   9.596468   7.468647   7.629281   8.136790
                   16         17         18         19         20
    16  C    0.000000
    17  C    1.387338   0.000000
    18  H    2.144133   1.084230   0.000000
    19  C    2.405925   1.389884   2.148906   0.000000
    20  H    3.382274   2.138312   2.459314   1.085527   0.000000
    21  C    2.818199   2.435384   3.413661   1.400530   2.152880
    22  H    1.084495   2.146372   2.469749   3.388648   4.274576
    23  C    5.222676   6.041690   6.940394   5.997736   6.879165
    24  C    6.057794   6.640198   7.534082   6.356341   7.093747
    25  H    6.950069   7.521320   8.356865   7.275079   7.967632
    26  C    6.066734   6.422240   7.360047   5.857206   6.478300
    27  H    6.967508   7.184558   8.084206   6.498928   6.987593
    28  C    5.224325   5.525268   6.531601   4.845412   5.500240
    29  H    5.604357   6.550689   7.373090   6.701479   7.615598
    30  B    4.401506   3.879304   4.733319   2.585022   2.757705
    31  N    5.724393   5.746766   6.735557   4.771425   5.222056
    32  C    6.470723   6.591398   7.623145   5.620983   6.100718
    33  H    7.312297   7.534613   8.577517   6.624280   7.131865
    34  H    6.993157   6.935317   7.920335   5.825652   6.143387
    35  H    5.959107   6.220528   7.281750   5.378407   5.985250
    36  C    6.772612   6.605457   7.497261   5.524999   5.749853
    37  H    7.190728   6.862106   7.711897   5.646304   5.709252
    38  H    7.656108   7.594602   8.505225   6.570505   6.836045
    39  H    6.541426   6.288785   7.096664   5.258193   5.415943
    40  C    5.317110   4.927001   5.786153   3.734822   3.902177
    41  H    6.351484   5.931130   6.768459   4.674467   4.717204
    42  H    5.418863   4.869217   5.597511   3.714115   3.713754
    43  H    5.179254   5.064480   6.007312   4.072560   4.482374
    44  C    5.327428   4.549075   5.197410   3.198764   2.912511
    45  H    5.412293   4.401683   4.857246   3.064710   2.426619
    46  H    6.362409   5.624297   6.276744   4.261474   3.942518
    47  H    5.222116   4.497803   5.114538   3.294459   3.089928
                   21         22         23         24         25
    21  C    0.000000
    22  H    3.902379   0.000000
    23  C    5.154741   5.622911   0.000000
    24  C    5.443770   6.590424   1.384415   0.000000
    25  H    6.434783   7.410549   2.141439   1.083989   0.000000
    26  C    4.807605   6.791142   2.412834   1.391972   2.143874
    27  H    5.471742   7.727309   3.386088   2.141329   2.455081
    28  C    3.644270   6.066990   2.806377   2.418603   3.395415
    29  H    5.988481   5.808913   1.083944   2.144846   2.469005
    30  B    1.584365   5.485833   5.817319   5.780822   6.740318
    31  N    3.493252   6.696013   4.226199   3.745997   4.624404
    32  C    4.245350   7.434243   4.935283   4.583676   5.463700
    33  H    5.249868   8.224267   4.969158   4.471383   5.222480
    34  H    4.509420   8.009028   5.979934   5.584127   6.435345
    35  H    3.980212   6.881097   4.801798   4.758544   5.730496
    36  C    4.425249   7.750861   5.060989   4.231392   4.867964
    37  H    4.595162   8.221958   6.068329   5.306291   5.959076
    38  H    5.434963   8.594804   5.202622   4.192634   4.662766
    39  H    4.357599   7.482848   4.970749   4.084254   4.626900
    40  C    2.712720   6.374381   6.635868   6.644660   7.645828
    41  H    3.654087   7.418465   7.139954   6.965002   7.908723
    42  H    3.037101   6.439729   7.507945   7.606673   8.618749
    43  H    2.908865   6.183452   6.260807   6.415241   7.457311
    44  C    2.705576   6.375754   6.487434   6.179986   6.991141
    45  H    3.027390   6.420103   7.334498   7.115185   7.921332
    46  H    3.649453   7.422568   7.035990   6.568651   7.329690
    47  H    2.911516   6.213291   5.974587   5.576644   6.296638
                   26         27         28         29         30
    26  C    0.000000
    27  H    1.082452   0.000000
    28  C    1.393647   2.151707   0.000000
    29  H    3.394533   4.277594   3.890179   0.000000
    30  B    4.802834   5.215693   3.586316   6.790541   0.000000
    31  N    2.484998   2.742157   1.421389   5.309972   2.825993
    32  C    3.426375   3.670014   2.389385   5.986070   3.452847
    33  H    3.368021   3.459713   2.709621   5.974264   4.520584
    34  H    4.347629   4.440961   3.322210   7.041343   3.388589
    35  H    3.822594   4.316827   2.625969   5.795967   3.466931
    36  C    2.849009   2.536688   2.426992   6.117081   3.496470
    37  H    3.925942   3.610670   3.336645   7.136738   3.350881
    38  H    2.840049   2.225046   2.818735   6.217732   4.554786
    39  H    2.816071   2.448273   2.654133   5.972912   3.613006
    40  C    5.605735   6.001376   4.277012   7.628662   1.572310
    41  H    5.789509   6.008499   4.549515   8.179428   2.253608
    42  H    6.620590   7.039451   5.288173   8.458662   2.148251
    43  H    5.485907   6.007771   4.103737   7.217292   2.244778
    44  C    5.102210   5.241810   4.176581   7.464679   1.576474
    45  H    6.113093   6.279449   5.186141   8.262704   2.173639
    46  H    5.351209   5.307358   4.488730   8.060493   2.252573
    47  H    4.577067   4.669243   3.886471   6.909523   2.244373
                   31         32         33         34         35
    31  N    0.000000
    32  C    1.465511   0.000000
    33  H    2.126707   1.100391   0.000000
    34  H    2.094384   1.090776   1.780454   0.000000
    35  H    2.104444   1.088575   1.785108   1.767754   0.000000
    36  C    1.454251   2.403300   2.718053   2.601388   3.347475
    37  H    2.075400   2.633973   3.085224   2.358180   3.594442
    38  H    2.140013   2.692887   2.544143   2.959854   3.717771
    39  H    2.097110   3.354982   3.712257   3.606984   4.179943
    40  C    3.294957   3.221582   4.301386   2.838798   3.053480
    41  H    3.324271   3.049209   4.032899   2.329189   3.154101
    42  H    4.365945   4.307644   5.378036   3.865255   4.060795
    43  H    3.320073   2.941679   3.970432   2.763170   2.427657
    44  C    3.304384   4.209558   5.156280   4.001692   4.571614
    45  H    4.378596   5.222067   6.204803   4.945397   5.490788
    46  H    3.363372   4.081674   4.942824   3.649666   4.628695
    47  H    3.279786   4.473701   5.308661   4.471820   4.911786
                   36         37         38         39         40
    36  C    0.000000
    37  H    1.091234   0.000000
    38  H    1.101113   1.772283   0.000000
    39  H    1.090995   1.767975   1.785125   0.000000
    40  C    4.068082   3.693611   4.979029   4.543869   0.000000
    41  H    3.803465   3.192956   4.613474   4.419994   1.093298
    42  H    5.078747   4.625386   6.022245   5.464665   1.100881
    43  H    4.380921   4.188422   5.175102   4.970239   1.092199
    44  C    3.302194   2.968058   4.386907   3.101158   2.742199
    45  H    4.387072   3.985099   5.462024   4.117195   3.196448
    46  H    3.028197   2.370455   4.019921   2.997622   2.911369
    47  H    3.111288   3.060042   4.157876   2.567843   3.635828
                   41         42         43         44         45
    41  H    0.000000
    42  H    1.760249   0.000000
    43  H    1.787688   1.755341   0.000000
    44  C    2.926672   3.148263   3.648711   0.000000
    45  H    3.463047   3.228744   4.177767   1.100184   0.000000
    46  H    2.671926   3.382683   3.873928   1.092710   1.757243
    47  H    3.858629   4.138505   4.402672   1.093615   1.753504
                   46         47
    46  H    0.000000
    47  H    1.784006   0.000000
 Symmetry turned off by external request.
 Stoichiometry    C22H22BNO
 Framework group  C1[X(C22H22BNO)]
 Deg. of freedom   135
 Full point group                 C1      NOp   1
 Rotational constants (GHZ):           0.3440256           0.2144305           0.1561151
 General basis read from cards:  (5D, 7F)
 ======================================================================================================
                                       Pseudopotential Parameters
 ======================================================================================================
  Center     Atomic      Valence      Angular      Power
  Number     Number     Electrons     Momentum     of R      Exponent        Coefficient   SO-Coeffient
 ======================================================================================================
    1          6
                                   No pseudopotential on this center.
    2          6
                                   No pseudopotential on this center.
    3          6
                                   No pseudopotential on this center.
    4          6
                                   No pseudopotential on this center.
    5          6
                                   No pseudopotential on this center.
    6          6
                                   No pseudopotential on this center.
    7          8
                                   No pseudopotential on this center.
    8          6
                                   No pseudopotential on this center.
    9          6
                                   No pseudopotential on this center.
   10          1
                                   No pseudopotential on this center.
   11          6
                                   No pseudopotential on this center.
   12          1
                                   No pseudopotential on this center.
   13          6
                                   No pseudopotential on this center.
   14          1
                                   No pseudopotential on this center.
   15          1
                                   No pseudopotential on this center.
   16          6
                                   No pseudopotential on this center.
   17          6
                                   No pseudopotential on this center.
   18          1
                                   No pseudopotential on this center.
   19          6
                                   No pseudopotential on this center.
   20          1
                                   No pseudopotential on this center.
   21          6
                                   No pseudopotential on this center.
   22          1
                                   No pseudopotential on this center.
   23          6
                                   No pseudopotential on this center.
   24          6
                                   No pseudopotential on this center.
   25          1
                                   No pseudopotential on this center.
   26          6
                                   No pseudopotential on this center.
   27          1
                                   No pseudopotential on this center.
   28          6
                                   No pseudopotential on this center.
   29          1
                                   No pseudopotential on this center.
   30          5
                                   No pseudopotential on this center.
   31          7
                                   No pseudopotential on this center.
   32          6
                                   No pseudopotential on this center.
   33          1
                                   No pseudopotential on this center.
   34          1
                                   No pseudopotential on this center.
   35          1
                                   No pseudopotential on this center.
   36          6
                                   No pseudopotential on this center.
   37          1
                                   No pseudopotential on this center.
   38          1
                                   No pseudopotential on this center.
   39          1
                                   No pseudopotential on this center.
   40          6
                                   No pseudopotential on this center.
   41          1
                                   No pseudopotential on this center.
   42          1
                                   No pseudopotential on this center.
   43          1
                                   No pseudopotential on this center.
   44          6
                                   No pseudopotential on this center.
   45          1
                                   No pseudopotential on this center.
   46          1
                                   No pseudopotential on this center.
   47          1
                                   No pseudopotential on this center.
 ======================================================================================================
   704 basis functions,  1098 primitive gaussians,   729 cartesian basis functions
    87 alpha electrons       87 beta electrons
       nuclear repulsion energy      2171.7691523273 Hartrees.
 NAtoms=   47 NActive=   47 NUniq=   47 SFac= 1.00D+00 NAtFMM=   60 NAOKFM=F Big=F
 Integral buffers will be    131072 words long.
 Raffenetti 2 integral format.
 Two-electron integral symmetry is turned off.
 Nuclear repulsion after empirical dispersion term =     2171.7243017107 Hartrees.
 ------------------------------------------------------------------------------
 Polarizable Continuum Model (PCM)
 =================================
 Model                : PCM.
 Atomic radii         : UFF (Universal Force Field).
 Polarization charges : Total charges.
 Charge compensation  : None.
 Solution method      : On-the-fly selection.
 Cavity type          : Scaled VdW (van der Waals Surface) (Alpha=1.100).
 Cavity algorithm     : GePol (No added spheres)
                        Default sphere list used, NSphG=   47.
                        Lebedev-Laikov grids with approx.  5.0 points / Ang**2.
                        Smoothing algorithm: York/Karplus (Gamma=1.0000).
                        Polarization charges: spherical gaussians, with
                                              point-specific exponents (IZeta= 3).
                        Self-potential: point-specific (ISelfS= 7).
                        Self-field    : sphere-specific E.n sum rule (ISelfD= 2).
 Solvent              : Toluene, Eps=   2.374100 Eps(inf)=   2.238315
 ------------------------------------------------------------------------------
 One-electron integrals computed using PRISM.
   1 Symmetry operations used in ECPInt.
 ECPInt:  NShTT=   33930 NPrTT=  115476 LenC2=   30574 LenP2D=   70795.
 LDataN:  DoStor=T MaxTD1= 4 Len=   56
 Number of processors reduced to  66 by ecpmxn.
 NBasis=   704 RedAO= T EigKep=  1.65D-06  NBF=   704
 NBsUse=   694 1.00D-06 EigRej=  9.85D-07 NBFU=   694
 ExpMin= 3.15D-02 ExpMax= 8.59D+03 ExpMxC= 1.30D+03 IAcc=3 IRadAn=         5 AccDes= 0.00D+00
 Harris functional with IExCor= 4639 and IRadAn=       5 diagonalized for initial guess.
 HarFok:  IExCor= 4639 AccDes= 0.00D+00 IRadAn=         5 IDoV= 1 UseB2=F ITyADJ=14
 ICtDFT=  3500011 ScaDFX=  1.000000  1.000000  1.000000  1.000000
 FoFCou: FMM=F IPFlag=           0 FMFlag=      100000 FMFlg1=           0
         NFxFlg=           0 DoJE=T BraDBF=F KetDBF=T FulRan=T
         wScrn=  0.000000 ICntrl=       500 IOpCl=  0 I1Cent=   200000004 NGrid=           0
         NMat0=    1 NMatS0=      1 NMatT0=    0 NMatD0=    1 NMtDS0=    0 NMtDT0=    0
 Symmetry not used in FoFCou.
 Requested convergence on RMS density matrix=1.00D-08 within 300 cycles.
 Requested convergence on MAX density matrix=1.00D-06.
 Requested convergence on             energy=1.00D-06.
 No special actions if energy rises.
 Inv3:  Mode=1 IEnd=    27889203.
 Iteration    1 A*A^-1 deviation from unit magnitude is 7.33D-15 for   3046.
 Iteration    1 A*A^-1 deviation from orthogonality  is 2.69D-15 for   3046   2311.
 Iteration    1 A^-1*A deviation from unit magnitude is 7.33D-15 for   3046.
 Iteration    1 A^-1*A deviation from orthogonality  is 2.15D-15 for   2932   1920.
 Error on total polarization charges =  0.01180
 SCF Done:  E(RwB97XD) =  -1006.35345970     A.U. after   16 cycles
            NFock= 16  Conv=0.79D-08     -V/T= 2.0043

 **********************************************************************

            Population analysis using the SCF Density.

 **********************************************************************

 Alpha  occ. eigenvalues --  -19.27724 -14.45278 -10.34889 -10.34681 -10.33011
 Alpha  occ. eigenvalues --  -10.30849 -10.30785 -10.30763 -10.30547 -10.30287
 Alpha  occ. eigenvalues --  -10.30139 -10.29332 -10.29308 -10.29269 -10.29268
 Alpha  occ. eigenvalues --  -10.29218 -10.29217 -10.29178 -10.29171 -10.29041
 Alpha  occ. eigenvalues --  -10.28730 -10.27256 -10.24574 -10.24233  -6.84468
 Alpha  occ. eigenvalues --   -1.18634  -1.05163  -0.98338  -0.96920  -0.95013
 Alpha  occ. eigenvalues --   -0.89031  -0.88206  -0.86429  -0.84079  -0.83773
 Alpha  occ. eigenvalues --   -0.81775  -0.81143  -0.80015  -0.76860  -0.75887
 Alpha  occ. eigenvalues --   -0.74098  -0.72732  -0.70348  -0.68877  -0.68178
 Alpha  occ. eigenvalues --   -0.66954  -0.62817  -0.62143  -0.59863  -0.58742
 Alpha  occ. eigenvalues --   -0.57984  -0.56862  -0.55983  -0.55763  -0.54820
 Alpha  occ. eigenvalues --   -0.54225  -0.53926  -0.53396  -0.52098  -0.51748
 Alpha  occ. eigenvalues --   -0.51191  -0.50027  -0.49223  -0.48256  -0.47865
 Alpha  occ. eigenvalues --   -0.47722  -0.46944  -0.46607  -0.46418  -0.46263
 Alpha  occ. eigenvalues --   -0.45618  -0.45525  -0.45441  -0.44725  -0.44379
 Alpha  occ. eigenvalues --   -0.42806  -0.42512  -0.39261  -0.39214  -0.37367
 Alpha  occ. eigenvalues --   -0.37014  -0.35528  -0.34893  -0.32241  -0.31353
 Alpha  occ. eigenvalues --   -0.30358  -0.29521
 Alpha virt. eigenvalues --    0.01976   0.03073   0.03759   0.04092   0.04477
 Alpha virt. eigenvalues --    0.04584   0.05262   0.05444   0.05711   0.05955
 Alpha virt. eigenvalues --    0.06363   0.06613   0.07050   0.07344   0.07459
 Alpha virt. eigenvalues --    0.07669   0.08206   0.08399   0.08552   0.09293
 Alpha virt. eigenvalues --    0.09470   0.09667   0.09962   0.10068   0.10344
 Alpha virt. eigenvalues --    0.10491   0.11652   0.12120   0.12529   0.13022
 Alpha virt. eigenvalues --    0.13134   0.13683   0.13757   0.14173   0.14645
 Alpha virt. eigenvalues --    0.14956   0.15334   0.15510   0.15670   0.16072
 Alpha virt. eigenvalues --    0.16332   0.16474   0.17016   0.17221   0.17379
 Alpha virt. eigenvalues --    0.17699   0.17923   0.18191   0.18250   0.18414
 Alpha virt. eigenvalues --    0.18597   0.18967   0.19178   0.19190   0.19366
 Alpha virt. eigenvalues --    0.19624   0.19685   0.19876   0.20130   0.20210
 Alpha virt. eigenvalues --    0.20504   0.20669   0.21100   0.21303   0.21636
 Alpha virt. eigenvalues --    0.21734   0.22145   0.22466   0.22614   0.22810
 Alpha virt. eigenvalues --    0.23232   0.23280   0.23795   0.24058   0.24238
 Alpha virt. eigenvalues --    0.24282   0.24461   0.24821   0.25020   0.25190
 Alpha virt. eigenvalues --    0.25267   0.25666   0.25870   0.26344   0.26452
 Alpha virt. eigenvalues --    0.26701   0.27217   0.27404   0.27559   0.27757
 Alpha virt. eigenvalues --    0.28081   0.28195   0.28780   0.28879   0.29297
 Alpha virt. eigenvalues --    0.29562   0.30043   0.30367   0.30568   0.30762
 Alpha virt. eigenvalues --    0.31224   0.31434   0.31859   0.31940   0.32386
 Alpha virt. eigenvalues --    0.32793   0.33024   0.33228   0.33623   0.33736
 Alpha virt. eigenvalues --    0.33974   0.34127   0.34373   0.34551   0.35023
 Alpha virt. eigenvalues --    0.35110   0.35173   0.35540   0.35811   0.35972
 Alpha virt. eigenvalues --    0.36480   0.36684   0.36769   0.36868   0.37293
 Alpha virt. eigenvalues --    0.37405   0.37689   0.38274   0.38690   0.38796
 Alpha virt. eigenvalues --    0.39119   0.39374   0.39476   0.40161   0.40319
 Alpha virt. eigenvalues --    0.40631   0.41032   0.41230   0.41435   0.41664
 Alpha virt. eigenvalues --    0.42187   0.42532   0.42850   0.42895   0.43873
 Alpha virt. eigenvalues --    0.44299   0.44906   0.45154   0.45489   0.45839
 Alpha virt. eigenvalues --    0.46368   0.46724   0.47613   0.47752   0.48646
 Alpha virt. eigenvalues --    0.48843   0.49766   0.49993   0.50306   0.50709
 Alpha virt. eigenvalues --    0.51277   0.52267   0.52616   0.53559   0.54238
 Alpha virt. eigenvalues --    0.55213   0.57387   0.57834   0.58602   0.59480
 Alpha virt. eigenvalues --    0.60104   0.60860   0.61189   0.62008   0.62539
 Alpha virt. eigenvalues --    0.62970   0.63617   0.64027   0.64605   0.64788
 Alpha virt. eigenvalues --    0.65273   0.65892   0.66598   0.66737   0.67247
 Alpha virt. eigenvalues --    0.67769   0.68272   0.68471   0.69383   0.69860
 Alpha virt. eigenvalues --    0.70034   0.70404   0.70521   0.71223   0.71693
 Alpha virt. eigenvalues --    0.72179   0.72240   0.72483   0.72847   0.73716
 Alpha virt. eigenvalues --    0.73844   0.74474   0.74744   0.74912   0.75692
 Alpha virt. eigenvalues --    0.75982   0.76603   0.77069   0.77423   0.77709
 Alpha virt. eigenvalues --    0.78048   0.78457   0.78852   0.79046   0.79988
 Alpha virt. eigenvalues --    0.80936   0.81188   0.81608   0.81799   0.82167
 Alpha virt. eigenvalues --    0.82616   0.82900   0.83268   0.83919   0.84224
 Alpha virt. eigenvalues --    0.84880   0.85374   0.85524   0.86009   0.86305
 Alpha virt. eigenvalues --    0.86836   0.87538   0.87805   0.88541   0.88815
 Alpha virt. eigenvalues --    0.89069   0.89501   0.89926   0.90141   0.90583
 Alpha virt. eigenvalues --    0.91122   0.91316   0.92688   0.93173   0.93748
 Alpha virt. eigenvalues --    0.94058   0.94692   0.94871   0.95317   0.96095
 Alpha virt. eigenvalues --    0.96481   0.97270   0.97795   0.98287   0.98609
 Alpha virt. eigenvalues --    0.99298   1.00254   1.01003   1.01686   1.01880
 Alpha virt. eigenvalues --    1.02298   1.03549   1.04049   1.05190   1.05267
 Alpha virt. eigenvalues --    1.05982   1.06337   1.06957   1.07698   1.08113
 Alpha virt. eigenvalues --    1.08910   1.09446   1.10454   1.11102   1.11427
 Alpha virt. eigenvalues --    1.12137   1.13410   1.13730   1.14484   1.14799
 Alpha virt. eigenvalues --    1.15367   1.16501   1.17428   1.17801   1.18852
 Alpha virt. eigenvalues --    1.19050   1.19995   1.20497   1.21073   1.21706
 Alpha virt. eigenvalues --    1.22718   1.23046   1.23476   1.25179   1.27212
 Alpha virt. eigenvalues --    1.27739   1.29019   1.29404   1.29959   1.33906
 Alpha virt. eigenvalues --    1.34507   1.35922   1.36613   1.38604   1.39933
 Alpha virt. eigenvalues --    1.41131   1.43518   1.43911   1.44048   1.45143
 Alpha virt. eigenvalues --    1.46761   1.47558   1.49059   1.51825   1.53742
 Alpha virt. eigenvalues --    1.54476   1.54982   1.56174   1.56436   1.57362
 Alpha virt. eigenvalues --    1.57552   1.58346   1.58847   1.59112   1.60448
 Alpha virt. eigenvalues --    1.60662   1.61227   1.62040   1.63378   1.63861
 Alpha virt. eigenvalues --    1.64143   1.64741   1.65460   1.65677   1.65989
 Alpha virt. eigenvalues --    1.66846   1.66879   1.67263   1.67708   1.67775
 Alpha virt. eigenvalues --    1.69480   1.70279   1.71031   1.71358   1.72614
 Alpha virt. eigenvalues --    1.72924   1.73870   1.74533   1.74584   1.75477
 Alpha virt. eigenvalues --    1.76066   1.76853   1.77204   1.77620   1.78493
 Alpha virt. eigenvalues --    1.79565   1.79774   1.80152   1.80962   1.81362
 Alpha virt. eigenvalues --    1.82690   1.82883   1.83669   1.84512   1.84690
 Alpha virt. eigenvalues --    1.84803   1.85130   1.85764   1.86673   1.87529
 Alpha virt. eigenvalues --    1.88048   1.90967   1.91606   1.92377   1.93447
 Alpha virt. eigenvalues --    1.94029   1.94476   1.94855   1.95460   1.95934
 Alpha virt. eigenvalues --    1.97730   1.97888   1.98235   1.99417   1.99782
 Alpha virt. eigenvalues --    2.00710   2.01373   2.02036   2.02322   2.02826
 Alpha virt. eigenvalues --    2.03417   2.03813   2.04430   2.05055   2.05585
 Alpha virt. eigenvalues --    2.06209   2.07206   2.07447   2.07767   2.08188
 Alpha virt. eigenvalues --    2.08502   2.09168   2.10070   2.10410   2.12766
 Alpha virt. eigenvalues --    2.13386   2.14026   2.15637   2.17009   2.18131
 Alpha virt. eigenvalues --    2.18295   2.19001   2.19963   2.20583   2.22198
 Alpha virt. eigenvalues --    2.22704   2.24856   2.25348   2.26181   2.26824
 Alpha virt. eigenvalues --    2.28895   2.30259   2.31783   2.32414   2.32795
 Alpha virt. eigenvalues --    2.34705   2.34735   2.38041   2.38904   2.39784
 Alpha virt. eigenvalues --    2.40729   2.41550   2.43984   2.44120   2.45234
 Alpha virt. eigenvalues --    2.48007   2.48693   2.49288   2.50474   2.53114
 Alpha virt. eigenvalues --    2.53300   2.55468   2.55775   2.56684   2.57224
 Alpha virt. eigenvalues --    2.59017   2.59213   2.59725   2.60716   2.60811
 Alpha virt. eigenvalues --    2.61502   2.62541   2.62872   2.66116   2.66290
 Alpha virt. eigenvalues --    2.66855   2.67565   2.68885   2.69826   2.71566
 Alpha virt. eigenvalues --    2.71820   2.72821   2.74129   2.74698   2.76204
 Alpha virt. eigenvalues --    2.76562   2.78005   2.78592   2.79468   2.80087
 Alpha virt. eigenvalues --    2.80943   2.81471   2.82031   2.82721   2.83020
 Alpha virt. eigenvalues --    2.83648   2.84510   2.84666   2.85543   2.85919
 Alpha virt. eigenvalues --    2.86438   2.87055   2.87494   2.88064   2.88679
 Alpha virt. eigenvalues --    2.89044   2.89466   2.90119   2.90844   2.91511
 Alpha virt. eigenvalues --    2.93041   2.93807   2.94347   2.95011   2.95423
 Alpha virt. eigenvalues --    2.95997   2.96718   2.97674   2.98459   2.98793
 Alpha virt. eigenvalues --    3.00248   3.00904   3.02156   3.03621   3.05571
 Alpha virt. eigenvalues --    3.07768   3.08734   3.09996   3.10788   3.12887
 Alpha virt. eigenvalues --    3.13962   3.14381   3.15306   3.20117   3.20818
 Alpha virt. eigenvalues --    3.23035   3.23799   3.24813   3.27509   3.29426
 Alpha virt. eigenvalues --    3.30547   3.32510   3.33023   3.34945   3.38843
 Alpha virt. eigenvalues --    3.41012   3.41619   3.43615   3.47456   3.48848
 Alpha virt. eigenvalues --    3.50081   3.51670   3.52056   3.53715   3.55058
 Alpha virt. eigenvalues --    3.59018   3.59481   3.61544   3.65347   3.66408
 Alpha virt. eigenvalues --    3.67431   3.69932   3.70438   3.71539   3.72846
 Alpha virt. eigenvalues --    3.75266   3.80748   3.81103   3.84450   3.86405
 Alpha virt. eigenvalues --    3.87662   3.90252   3.91937   3.92665   3.94006
 Alpha virt. eigenvalues --    3.95390   3.96018   3.97394   4.02858   4.07060
 Alpha virt. eigenvalues --    4.11348   4.14675   4.15381   4.15659   4.16931
 Alpha virt. eigenvalues --    4.21074   4.25353   4.27080   4.31430   4.32311
 Alpha virt. eigenvalues --    4.35506   4.49379   4.53367   4.67484   4.94122
 Alpha virt. eigenvalues --    4.95140   4.96626   4.98926   5.11891   5.42220
 Alpha virt. eigenvalues --    5.65270   6.05015  14.87851  23.68270  23.82018
 Alpha virt. eigenvalues --   23.86470  24.08069  24.08569  24.09925  24.10576
 Alpha virt. eigenvalues --   24.10967  24.12266  24.12646  24.13576  24.15096
 Alpha virt. eigenvalues --   24.18469  24.19544  24.20942  24.22126  24.24103
 Alpha virt. eigenvalues --   24.24650  24.26281  24.32559  24.32756  24.34438
 Alpha virt. eigenvalues --   35.75376  50.15448
          Condensed to atoms (all electrons):
               1          2          3          4          5          6
     1  C    9.225498   1.086936   0.887344   1.039165  -0.148412  -0.405899
     2  C    1.086936   8.962967   1.006041   0.714808  -0.357024  -0.338185
     3  C    0.887344   1.006041  14.171630   1.934489   0.421334   0.257638
     4  C    1.039165   0.714808   1.934489  13.645575   0.008552   0.367951
     5  C   -0.148412  -0.357024   0.421334   0.008552   7.926556  -0.429621
     6  C   -0.405899  -0.338185   0.257638   0.367951  -0.429621   7.711339
     7  O   -0.061315  -0.039716  -0.050174  -0.043620   0.391867   0.344081
     8  C   -1.217580  -1.452767  -1.773245  -1.398454  -0.871627  -0.450733
     9  C    0.553957  -2.027039  -0.237424  -0.358949   0.059795   0.122119
    10  H    0.016776   0.004074   0.000405  -0.001719   0.003146  -0.000422
    11  C   -2.355454   0.440059  -0.380701  -0.156985   0.124434   0.138372
    12  H   -0.006476   0.013632  -0.002644  -0.002149  -0.000468   0.003821
    13  C   -1.520388  -1.198555  -1.248023  -1.565969  -0.448496  -0.811679
    14  H   -0.024314   0.002683  -0.003920   0.003848  -0.008268  -0.024125
    15  H    0.003457  -0.022812  -0.002719  -0.005262  -0.019868  -0.007759
    16  C   -0.131957  -0.785348  -0.833105  -4.675269   0.067585   0.376954
    17  C   -0.212409  -0.020303   0.020450  -0.740843   0.095610   0.323234
    18  H   -0.001999   0.002461  -0.001895  -0.017613   0.000902   0.000449
    19  C   -0.011382   0.169957   0.372349   2.406593  -0.071468   0.284673
    20  H    0.009340   0.001747   0.009698   0.104952   0.000248   0.020577
    21  C   -0.103973  -0.374647  -0.888829  -4.252718  -0.078491  -0.456191
    22  H   -0.009416   0.005029  -0.015933  -0.166989   0.004357   0.020982
    23  C   -0.892357   0.081185  -4.898380  -0.934104  -0.259862  -0.284783
    24  C   -0.064519  -0.424376  -0.633176   0.081993   0.475522   0.182371
    25  H    0.000322  -0.006799  -0.023210   0.000614   0.004213  -0.000070
    26  C    0.097443  -0.119838   1.917677   0.346776   0.721994   0.153963
    27  H    0.000009   0.007479   0.079462   0.006744   0.024152   0.009367
    28  C   -0.400207   0.166166  -4.198341  -0.779749  -0.266725  -0.609370
    29  H    0.001775  -0.002199  -0.166338  -0.020562   0.004035   0.001274
    30  B   -0.011183   0.004951   0.144957   0.228998  -0.052201  -0.038953
    31  N   -0.015678  -0.036851  -0.108942  -0.005190  -0.423301   0.035354
    32  C   -0.019754  -0.027622  -0.161765   0.011750  -0.362462   0.145531
    33  H   -0.001392  -0.002511   0.016109  -0.000054  -0.007559   0.001152
    34  H    0.005521   0.002550  -0.002239   0.004502   0.011999   0.018251
    35  H   -0.008462  -0.008778   0.032551   0.017727   0.035007  -0.009199
    36  C   -0.005849   0.001713  -0.146523  -0.073970   0.045691  -0.124805
    37  H   -0.002583  -0.000749  -0.010554  -0.008093   0.010731  -0.020662
    38  H    0.001105  -0.000551   0.005240  -0.001079  -0.016189  -0.001554
    39  H   -0.000045  -0.000086  -0.016139  -0.002949   0.003213  -0.001002
    40  C    0.004713  -0.016383  -0.055431  -0.294094   0.119470  -0.194987
    41  H    0.000919   0.002181  -0.003574  -0.014595   0.009585  -0.006861
    42  H   -0.001244  -0.003102  -0.003506  -0.012785   0.007619  -0.000399
    43  H   -0.000272  -0.005729  -0.017178  -0.045846  -0.038319  -0.024603
    44  C    0.001455   0.010085  -0.017209   0.063756  -0.135209   0.113094
    45  H   -0.001046   0.001669   0.002170   0.020924  -0.004754   0.009049
    46  H   -0.000128   0.000921  -0.005814   0.005581  -0.008688  -0.001331
    47  H    0.001336   0.003209   0.011901   0.014744   0.012481   0.021274
               7          8          9         10         11         12
     1  C   -0.061315  -1.217580   0.553957   0.016776  -2.355454  -0.006476
     2  C   -0.039716  -1.452767  -2.027039   0.004074   0.440059   0.013632
     3  C   -0.050174  -1.773245  -0.237424   0.000405  -0.380701  -0.002644
     4  C   -0.043620  -1.398454  -0.358949  -0.001719  -0.156985  -0.002149
     5  C    0.391867  -0.871627   0.059795   0.003146   0.124434  -0.000468
     6  C    0.344081  -0.450733   0.122119  -0.000422   0.138372   0.003821
     7  O    8.146917  -0.036959   0.004943   0.000201   0.005031   0.000080
     8  C   -0.036959  11.150542  -0.074873  -0.075502  -0.328805  -0.002978
     9  C    0.004943  -0.074873   8.546990   0.432270  -0.269697  -0.036923
    10  H    0.000201  -0.075502   0.432270   0.454703  -0.046543  -0.005700
    11  C    0.005031  -0.328805  -0.269697  -0.046543   8.810917   0.455120
    12  H    0.000080  -0.002978  -0.036923  -0.005700   0.455120   0.456326
    13  C   -0.033957   2.649895  -0.420928  -0.001340  -0.059380  -0.090419
    14  H   -0.001127   0.044249   0.012483   0.000841  -0.113227  -0.007486
    15  H   -0.002014   0.470173  -0.127507  -0.008098   0.022905   0.001061
    16  C   -0.030681  -0.069558   0.119731   0.001837   0.105449  -0.001815
    17  C   -0.024645   0.014042   0.038491   0.001135  -0.050522  -0.003141
    18  H   -0.000233   0.001266   0.000849   0.000020  -0.003964  -0.000013
    19  C    0.056127  -0.003008   0.014527   0.000136  -0.022794  -0.000779
    20  H    0.003692   0.000125  -0.000440  -0.000007   0.001906   0.000015
    21  C   -0.286820  -0.164063   0.022051   0.000582  -0.009501   0.000501
    22  H   -0.000962  -0.011068  -0.003643  -0.000158   0.016068   0.000158
    23  C    0.003548   0.362297   0.167042  -0.001867   0.138573   0.002673
    24  C   -0.007263   0.026879  -0.007377  -0.002621   0.032281   0.000825
    25  H    0.000507  -0.004842  -0.003789  -0.000030   0.001005   0.000019
    26  C    0.069011  -0.079224   0.002925  -0.000282  -0.000255  -0.000149
    27  H    0.000699   0.002929   0.001367   0.000032  -0.000829  -0.000012
    28  C   -0.265496  -0.392879  -0.030232   0.000051   0.027143   0.001032
    29  H   -0.000776   0.019339   0.012723   0.000195  -0.005201  -0.000178
    30  B   -0.024640   0.040179   0.012110   0.000247  -0.013567   0.000003
    31  N   -0.007820  -0.029348  -0.001871   0.000060  -0.005387  -0.000050
    32  C   -0.025248  -0.014793  -0.002209   0.000039  -0.003520  -0.000035
    33  H    0.002207   0.000139   0.000836   0.000013  -0.000408  -0.000006
    34  H   -0.007209  -0.000322  -0.000926  -0.000011   0.000427   0.000005
    35  H    0.007836  -0.013346  -0.003132  -0.000025   0.001442   0.000025
    36  C   -0.007041  -0.017723  -0.001653  -0.000022   0.000567   0.000018
    37  H    0.000112  -0.001054   0.000040   0.000001  -0.000008   0.000000
    38  H    0.000523  -0.000478  -0.000172  -0.000005   0.000094   0.000001
    39  H   -0.001006   0.000353  -0.000004   0.000001   0.000045   0.000001
    40  C   -0.024907  -0.012115  -0.004373  -0.000060   0.001250   0.000052
    41  H   -0.004803   0.000483   0.000091   0.000001  -0.000629  -0.000004
    42  H    0.000438  -0.002279  -0.000469  -0.000006   0.000571   0.000007
    43  H    0.001839  -0.005429   0.000190   0.000012  -0.001984  -0.000025
    44  C   -0.011574   0.002188   0.001177   0.000014  -0.001769  -0.000025
    45  H   -0.001742   0.000440   0.000157   0.000002  -0.000330  -0.000004
    46  H   -0.001348   0.000146   0.000058   0.000000  -0.000094  -0.000000
    47  H    0.002102   0.001446   0.000169  -0.000001  -0.000095  -0.000004
              13         14         15         16         17         18
     1  C   -1.520388  -0.024314   0.003457  -0.131957  -0.212409  -0.001999
     2  C   -1.198555   0.002683  -0.022812  -0.785348  -0.020303   0.002461
     3  C   -1.248023  -0.003920  -0.002719  -0.833105   0.020450  -0.001895
     4  C   -1.565969   0.003848  -0.005262  -4.675269  -0.740843  -0.017613
     5  C   -0.448496  -0.008268  -0.019868   0.067585   0.095610   0.000902
     6  C   -0.811679  -0.024125  -0.007759   0.376954   0.323234   0.000449
     7  O   -0.033957  -0.001127  -0.002014  -0.030681  -0.024645  -0.000233
     8  C    2.649895   0.044249   0.470173  -0.069558   0.014042   0.001266
     9  C   -0.420928   0.012483  -0.127507   0.119731   0.038491   0.000849
    10  H   -0.001340   0.000841  -0.008098   0.001837   0.001135   0.000020
    11  C   -0.059380  -0.113227   0.022905   0.105449  -0.050522  -0.003964
    12  H   -0.090419  -0.007486   0.001061  -0.001815  -0.003141  -0.000013
    13  C   11.085052   0.460729   0.043744   0.102566  -0.039999  -0.003519
    14  H    0.460729   0.469170   0.000612  -0.021925   0.011015   0.000756
    15  H    0.043744   0.000612   0.473763  -0.003583  -0.001711  -0.000048
    16  C    0.102566  -0.021925  -0.003583  11.060648   0.081385  -0.003194
    17  C   -0.039999   0.011015  -0.001711   0.081385   7.424419   0.393784
    18  H   -0.003519   0.000756  -0.000048  -0.003194   0.393784   0.459400
    19  C   -0.097352   0.003962  -0.001136  -3.177579   0.598278  -0.071814
    20  H    0.005467  -0.000166   0.000018  -0.055064  -0.036481  -0.014825
    21  C   -0.311102  -0.018588  -0.003638   3.639199  -1.311888   0.031636
    22  H    0.005276  -0.003084  -0.000001   0.482994  -0.053011  -0.006589
    23  C   -0.009643  -0.003073  -0.018129   0.075463  -0.058492  -0.000641
    24  C    0.018346  -0.001821   0.011844  -0.061261  -0.036411  -0.000949
    25  H    0.001030  -0.000058   0.000710  -0.001051  -0.001051  -0.000021
    26  C   -0.015613  -0.000598  -0.000703  -0.095322   0.017908  -0.000113
    27  H   -0.000248   0.000044  -0.000327  -0.002721   0.001568   0.000019
    28  C   -0.187654  -0.002634  -0.015250   0.430387  -0.034702   0.000467
    29  H   -0.005820   0.000135  -0.004362   0.013328   0.002001   0.000077
    30  B    0.013088   0.000120   0.000026  -0.170658   0.245635   0.004090
    31  N   -0.016524   0.000357  -0.000107  -0.004481   0.002393  -0.000288
    32  C   -0.009277   0.000115   0.000273   0.011438   0.002318  -0.000133
    33  H   -0.001848   0.000010  -0.000036  -0.000235   0.000664   0.000009
    34  H    0.003290   0.000006   0.000109  -0.001521  -0.003158  -0.000073
    35  H    0.000516  -0.000060   0.000076  -0.011092  -0.001469  -0.000094
    36  C   -0.006189  -0.000047   0.000300   0.027158  -0.005459  -0.000012
    37  H   -0.000805  -0.000003  -0.000024   0.003784   0.001440   0.000070
    38  H    0.000113  -0.000008   0.000054   0.000580  -0.000869  -0.000020
    39  H   -0.000196  -0.000002  -0.000008  -0.000325  -0.000228   0.000051
    40  C   -0.010573  -0.000099   0.000149   0.158298  -0.001799   0.001513
    41  H   -0.002835   0.000055  -0.000002   0.006805   0.009059   0.000363
    42  H   -0.000270   0.000012   0.000004   0.006194  -0.014638  -0.000304
    43  H   -0.015524   0.000248  -0.000104   0.021965   0.010414   0.000333
    44  C   -0.004528   0.000208  -0.000026   0.009230  -0.024186  -0.001778
    45  H   -0.000672   0.000048  -0.000006  -0.012833   0.023795   0.000463
    46  H   -0.000250   0.000004   0.000008  -0.000779  -0.008172  -0.000108
    47  H    0.001204  -0.000018  -0.000003   0.002459  -0.020499  -0.000730
              19         20         21         22         23         24
     1  C   -0.011382   0.009340  -0.103973  -0.009416  -0.892357  -0.064519
     2  C    0.169957   0.001747  -0.374647   0.005029   0.081185  -0.424376
     3  C    0.372349   0.009698  -0.888829  -0.015933  -4.898380  -0.633176
     4  C    2.406593   0.104952  -4.252718  -0.166989  -0.934104   0.081993
     5  C   -0.071468   0.000248  -0.078491   0.004357  -0.259862   0.475522
     6  C    0.284673   0.020577  -0.456191   0.020982  -0.284783   0.182371
     7  O    0.056127   0.003692  -0.286820  -0.000962   0.003548  -0.007263
     8  C   -0.003008   0.000125  -0.164063  -0.011068   0.362297   0.026879
     9  C    0.014527  -0.000440   0.022051  -0.003643   0.167042  -0.007377
    10  H    0.000136  -0.000007   0.000582  -0.000158  -0.001867  -0.002621
    11  C   -0.022794   0.001906  -0.009501   0.016068   0.138573   0.032281
    12  H   -0.000779   0.000015   0.000501   0.000158   0.002673   0.000825
    13  C   -0.097352   0.005467  -0.311102   0.005276  -0.009643   0.018346
    14  H    0.003962  -0.000166  -0.018588  -0.003084  -0.003073  -0.001821
    15  H   -0.001136   0.000018  -0.003638  -0.000001  -0.018129   0.011844
    16  C   -3.177579  -0.055064   3.639199   0.482994   0.075463  -0.061261
    17  C    0.598278  -0.036481  -1.311888  -0.053011  -0.058492  -0.036411
    18  H   -0.071814  -0.014825   0.031636  -0.006589  -0.000641  -0.000949
    19  C    8.580957   0.475551  -3.061067  -0.018534  -0.025471   0.028401
    20  H    0.475551   0.535241  -0.210516   0.001892  -0.000478   0.001965
    21  C   -3.061067  -0.210516  12.129226   0.059608   0.441748  -0.145889
    22  H   -0.018534   0.001892   0.059608   0.466405   0.014671   0.002101
    23  C   -0.025471  -0.000478   0.441748   0.014671  11.583874   0.023160
    24  C    0.028401   0.001965  -0.145889   0.002101   0.023160   8.416384
    25  H    0.000272   0.000050  -0.001436   0.000092   0.018421   0.400115
    26  C    0.061703   0.003020  -0.390459  -0.002835  -2.908313   0.761995
    27  H    0.003960   0.000140  -0.011823  -0.000137  -0.039517  -0.073949
    28  C   -0.286063  -0.007657   1.259907   0.010575   3.517570  -2.422417
    29  H   -0.002181  -0.000088   0.011666   0.000288   0.510296  -0.073251
    30  B    0.174902  -0.031683  -0.315059  -0.005808  -0.073956   0.116306
    31  N   -0.010249   0.002210   0.042734  -0.000291  -0.000403   0.121631
    32  C    0.011045  -0.003301   0.029315   0.000115   0.023634   0.101215
    33  H    0.002527  -0.000096   0.001378  -0.000026  -0.003735  -0.009009
    34  H   -0.002855   0.000548  -0.023340   0.000052   0.000478   0.022469
    35  H    0.007449   0.000719  -0.015534  -0.000070  -0.012580   0.026257
    36  C   -0.043203  -0.003655   0.123789   0.000320   0.036665  -0.316633
    37  H   -0.004679  -0.001526   0.020377  -0.000002   0.001828  -0.027557
    38  H   -0.002562   0.000210   0.001461   0.000033   0.000611   0.044173
    39  H    0.001750  -0.000420  -0.001230   0.000010   0.014414  -0.025908
    40  C   -0.233440  -0.023730   0.274276   0.000624   0.022178  -0.025829
    41  H    0.011828  -0.005214   0.014370  -0.000102   0.002201  -0.006970
    42  H   -0.025642  -0.001502   0.027944   0.000118   0.002142  -0.000033
    43  H   -0.009545  -0.003974   0.053780  -0.000134   0.012842  -0.006694
    44  C    0.081685   0.000061  -0.232481   0.000393  -0.006428   0.004423
    45  H    0.064315   0.002793  -0.108615  -0.000297  -0.001768   0.000650
    46  H   -0.006910  -0.002043   0.042840   0.000053   0.000959   0.000947
    47  H   -0.025044   0.007907   0.030979   0.000249  -0.009395  -0.004172
              25         26         27         28         29         30
     1  C    0.000322   0.097443   0.000009  -0.400207   0.001775  -0.011183
     2  C   -0.006799  -0.119838   0.007479   0.166166  -0.002199   0.004951
     3  C   -0.023210   1.917677   0.079462  -4.198341  -0.166338   0.144957
     4  C    0.000614   0.346776   0.006744  -0.779749  -0.020562   0.228998
     5  C    0.004213   0.721994   0.024152  -0.266725   0.004035  -0.052201
     6  C   -0.000070   0.153963   0.009367  -0.609370   0.001274  -0.038953
     7  O    0.000507   0.069011   0.000699  -0.265496  -0.000776  -0.024640
     8  C   -0.004842  -0.079224   0.002929  -0.392879   0.019339   0.040179
     9  C   -0.003789   0.002925   0.001367  -0.030232   0.012723   0.012110
    10  H   -0.000030  -0.000282   0.000032   0.000051   0.000195   0.000247
    11  C    0.001005  -0.000255  -0.000829   0.027143  -0.005201  -0.013567
    12  H    0.000019  -0.000149  -0.000012   0.001032  -0.000178   0.000003
    13  C    0.001030  -0.015613  -0.000248  -0.187654  -0.005820   0.013088
    14  H   -0.000058  -0.000598   0.000044  -0.002634   0.000135   0.000120
    15  H    0.000710  -0.000703  -0.000327  -0.015250  -0.004362   0.000026
    16  C   -0.001051  -0.095322  -0.002721   0.430387   0.013328  -0.170658
    17  C   -0.001051   0.017908   0.001568  -0.034702   0.002001   0.245635
    18  H   -0.000021  -0.000113   0.000019   0.000467   0.000077   0.004090
    19  C    0.000272   0.061703   0.003960  -0.286063  -0.002181   0.174902
    20  H    0.000050   0.003020   0.000140  -0.007657  -0.000088  -0.031683
    21  C   -0.001436  -0.390459  -0.011823   1.259907   0.011666  -0.315059
    22  H    0.000092  -0.002835  -0.000137   0.010575   0.000288  -0.005808
    23  C    0.018421  -2.908313  -0.039517   3.517570   0.510296  -0.073956
    24  C    0.400115   0.761995  -0.073949  -2.422417  -0.073251   0.116306
    25  H    0.451977  -0.085255  -0.011472   0.026125  -0.007010   0.000803
    26  C   -0.085255   8.553250   0.468669  -2.941488  -0.036031   0.223594
    27  H   -0.011472   0.468669   0.494297  -0.096226   0.000559  -0.002261
    28  C    0.026125  -2.941488  -0.096226  14.462972   0.081814  -0.368983
    29  H   -0.007010  -0.036031   0.000559   0.081814   0.467513  -0.003050
    30  B    0.000803   0.223594  -0.002261  -0.368983  -0.003050   6.636235
    31  N   -0.004413  -0.122516  -0.024110  -0.676170  -0.001099   0.137707
    32  C    0.002612  -0.090487  -0.007668  -0.341823  -0.001546  -0.202527
    33  H   -0.000900   0.021153   0.003388  -0.059650  -0.000044  -0.005342
    34  H    0.000436   0.025683  -0.000311   0.000410  -0.000087  -0.006774
    35  H    0.000680   0.007959  -0.000362   0.006880  -0.000595   0.018741
    36  C   -0.002558  -0.302580  -0.003437   0.277448   0.000807  -0.357159
    37  H   -0.000561  -0.022411   0.002634   0.092342   0.000116  -0.041239
    38  H    0.001391   0.072885   0.002530  -0.115125  -0.000204   0.014035
    39  H   -0.000023  -0.070732  -0.008291   0.114654   0.000203  -0.007113
    40  C   -0.000449  -0.048489  -0.002594   0.085785   0.000741  -0.230059
    41  H   -0.000108  -0.016416  -0.000346   0.012413   0.000089  -0.242677
    42  H   -0.000010  -0.001182  -0.000247   0.001257   0.000020  -0.136427
    43  H   -0.000155  -0.022564  -0.000617   0.011056   0.000262  -0.232473
    44  C    0.000282  -0.030876   0.002175  -0.008057  -0.000114   0.108685
    45  H    0.000014   0.002331   0.000349  -0.006731  -0.000036  -0.039492
    46  H    0.000124  -0.006161  -0.001049  -0.013003  -0.000012  -0.167608
    47  H   -0.000008   0.004024   0.002900   0.000177  -0.000041  -0.279417
              31         32         33         34         35         36
     1  C   -0.015678  -0.019754  -0.001392   0.005521  -0.008462  -0.005849
     2  C   -0.036851  -0.027622  -0.002511   0.002550  -0.008778   0.001713
     3  C   -0.108942  -0.161765   0.016109  -0.002239   0.032551  -0.146523
     4  C   -0.005190   0.011750  -0.000054   0.004502   0.017727  -0.073970
     5  C   -0.423301  -0.362462  -0.007559   0.011999   0.035007   0.045691
     6  C    0.035354   0.145531   0.001152   0.018251  -0.009199  -0.124805
     7  O   -0.007820  -0.025248   0.002207  -0.007209   0.007836  -0.007041
     8  C   -0.029348  -0.014793   0.000139  -0.000322  -0.013346  -0.017723
     9  C   -0.001871  -0.002209   0.000836  -0.000926  -0.003132  -0.001653
    10  H    0.000060   0.000039   0.000013  -0.000011  -0.000025  -0.000022
    11  C   -0.005387  -0.003520  -0.000408   0.000427   0.001442   0.000567
    12  H   -0.000050  -0.000035  -0.000006   0.000005   0.000025   0.000018
    13  C   -0.016524  -0.009277  -0.001848   0.003290   0.000516  -0.006189
    14  H    0.000357   0.000115   0.000010   0.000006  -0.000060  -0.000047
    15  H   -0.000107   0.000273  -0.000036   0.000109   0.000076   0.000300
    16  C   -0.004481   0.011438  -0.000235  -0.001521  -0.011092   0.027158
    17  C    0.002393   0.002318   0.000664  -0.003158  -0.001469  -0.005459
    18  H   -0.000288  -0.000133   0.000009  -0.000073  -0.000094  -0.000012
    19  C   -0.010249   0.011045   0.002527  -0.002855   0.007449  -0.043203
    20  H    0.002210  -0.003301  -0.000096   0.000548   0.000719  -0.003655
    21  C    0.042734   0.029315   0.001378  -0.023340  -0.015534   0.123789
    22  H   -0.000291   0.000115  -0.000026   0.000052  -0.000070   0.000320
    23  C   -0.000403   0.023634  -0.003735   0.000478  -0.012580   0.036665
    24  C    0.121631   0.101215  -0.009009   0.022469   0.026257  -0.316633
    25  H   -0.004413   0.002612  -0.000900   0.000436   0.000680  -0.002558
    26  C   -0.122516  -0.090487   0.021153   0.025683   0.007959  -0.302580
    27  H   -0.024110  -0.007668   0.003388  -0.000311  -0.000362  -0.003437
    28  C   -0.676170  -0.341823  -0.059650   0.000410   0.006880   0.277448
    29  H   -0.001099  -0.001546  -0.000044  -0.000087  -0.000595   0.000807
    30  B    0.137707  -0.202527  -0.005342  -0.006774   0.018741  -0.357159
    31  N    7.874203   0.397870  -0.025967  -0.048360  -0.112297   0.269810
    32  C    0.397870   5.799267   0.443662   0.349411   0.395421  -0.250961
    33  H   -0.025967   0.443662   0.509622  -0.047399  -0.028947  -0.015975
    34  H   -0.048360   0.349411  -0.047399   0.577171  -0.021213  -0.029219
    35  H   -0.112297   0.395421  -0.028947  -0.021213   0.518520   0.007065
    36  C    0.269810  -0.250961  -0.015975  -0.029219   0.007065   5.823621
    37  H   -0.080977  -0.038336  -0.002179  -0.014814   0.005991   0.442444
    38  H   -0.026705   0.011382   0.004734   0.005023  -0.001016   0.367017
    39  H   -0.084037  -0.000705   0.001434  -0.004242  -0.003539   0.428520
    40  C    0.007321  -0.049057   0.002547   0.016992  -0.010745   0.155493
    41  H   -0.002783  -0.000067   0.001378  -0.012316  -0.004697   0.025449
    42  H    0.003104   0.010794   0.000092   0.003071   0.001412   0.004130
    43  H    0.004193   0.056698   0.003294  -0.005492  -0.008904   0.010113
    44  C   -0.099226   0.106664   0.001190   0.003932  -0.002118  -0.038764
    45  H   -0.005968   0.002285   0.000068  -0.000354   0.000306   0.001834
    46  H   -0.010922   0.015311  -0.000363   0.004498  -0.000258   0.010029
    47  H   -0.012535  -0.004758  -0.000152   0.001296   0.001201   0.021012
              37         38         39         40         41         42
     1  C   -0.002583   0.001105  -0.000045   0.004713   0.000919  -0.001244
     2  C   -0.000749  -0.000551  -0.000086  -0.016383   0.002181  -0.003102
     3  C   -0.010554   0.005240  -0.016139  -0.055431  -0.003574  -0.003506
     4  C   -0.008093  -0.001079  -0.002949  -0.294094  -0.014595  -0.012785
     5  C    0.010731  -0.016189   0.003213   0.119470   0.009585   0.007619
     6  C   -0.020662  -0.001554  -0.001002  -0.194987  -0.006861  -0.000399
     7  O    0.000112   0.000523  -0.001006  -0.024907  -0.004803   0.000438
     8  C   -0.001054  -0.000478   0.000353  -0.012115   0.000483  -0.002279
     9  C    0.000040  -0.000172  -0.000004  -0.004373   0.000091  -0.000469
    10  H    0.000001  -0.000005   0.000001  -0.000060   0.000001  -0.000006
    11  C   -0.000008   0.000094   0.000045   0.001250  -0.000629   0.000571
    12  H    0.000000   0.000001   0.000001   0.000052  -0.000004   0.000007
    13  C   -0.000805   0.000113  -0.000196  -0.010573  -0.002835  -0.000270
    14  H   -0.000003  -0.000008  -0.000002  -0.000099   0.000055   0.000012
    15  H   -0.000024   0.000054  -0.000008   0.000149  -0.000002   0.000004
    16  C    0.003784   0.000580  -0.000325   0.158298   0.006805   0.006194
    17  C    0.001440  -0.000869  -0.000228  -0.001799   0.009059  -0.014638
    18  H    0.000070  -0.000020   0.000051   0.001513   0.000363  -0.000304
    19  C   -0.004679  -0.002562   0.001750  -0.233440   0.011828  -0.025642
    20  H   -0.001526   0.000210  -0.000420  -0.023730  -0.005214  -0.001502
    21  C    0.020377   0.001461  -0.001230   0.274276   0.014370   0.027944
    22  H   -0.000002   0.000033   0.000010   0.000624  -0.000102   0.000118
    23  C    0.001828   0.000611   0.014414   0.022178   0.002201   0.002142
    24  C   -0.027557   0.044173  -0.025908  -0.025829  -0.006970  -0.000033
    25  H   -0.000561   0.001391  -0.000023  -0.000449  -0.000108  -0.000010
    26  C   -0.022411   0.072885  -0.070732  -0.048489  -0.016416  -0.001182
    27  H    0.002634   0.002530  -0.008291  -0.002594  -0.000346  -0.000247
    28  C    0.092342  -0.115125   0.114654   0.085785   0.012413   0.001257
    29  H    0.000116  -0.000204   0.000203   0.000741   0.000089   0.000020
    30  B   -0.041239   0.014035  -0.007113  -0.230059  -0.242677  -0.136427
    31  N   -0.080977  -0.026705  -0.084037   0.007321  -0.002783   0.003104
    32  C   -0.038336   0.011382  -0.000705  -0.049057  -0.000067   0.010794
    33  H   -0.002179   0.004734   0.001434   0.002547   0.001378   0.000092
    34  H   -0.014814   0.005023  -0.004242   0.016992  -0.012316   0.003071
    35  H    0.005991  -0.001016  -0.003539  -0.010745  -0.004697   0.001412
    36  C    0.442444   0.367017   0.428520   0.155493   0.025449   0.004130
    37  H    0.556206  -0.065376  -0.001217   0.014675   0.007400   0.001105
    38  H   -0.065376   0.588062  -0.042514   0.001546  -0.001375   0.000050
    39  H   -0.001217  -0.042514   0.504013   0.001422   0.003403  -0.000213
    40  C    0.014675   0.001546   0.001422   5.908534   0.475597   0.427935
    41  H    0.007400  -0.001375   0.003403   0.475597   0.592539  -0.003406
    42  H    0.001105   0.000050  -0.000213   0.427935  -0.003406   0.507510
    43  H    0.004193  -0.001792   0.001861   0.459087  -0.010793  -0.000865
    44  C    0.009643  -0.004627   0.010135  -0.189036   0.013945   0.000653
    45  H    0.001223  -0.000242  -0.000898  -0.016640   0.001056  -0.005242
    46  H   -0.005857   0.001546  -0.001230   0.010276  -0.003409   0.005825
    47  H   -0.000987   0.000102  -0.005519   0.006611   0.002186  -0.002716
              43         44         45         46         47
     1  C   -0.000272   0.001455  -0.001046  -0.000128   0.001336
     2  C   -0.005729   0.010085   0.001669   0.000921   0.003209
     3  C   -0.017178  -0.017209   0.002170  -0.005814   0.011901
     4  C   -0.045846   0.063756   0.020924   0.005581   0.014744
     5  C   -0.038319  -0.135209  -0.004754  -0.008688   0.012481
     6  C   -0.024603   0.113094   0.009049  -0.001331   0.021274
     7  O    0.001839  -0.011574  -0.001742  -0.001348   0.002102
     8  C   -0.005429   0.002188   0.000440   0.000146   0.001446
     9  C    0.000190   0.001177   0.000157   0.000058   0.000169
    10  H    0.000012   0.000014   0.000002   0.000000  -0.000001
    11  C   -0.001984  -0.001769  -0.000330  -0.000094  -0.000095
    12  H   -0.000025  -0.000025  -0.000004  -0.000000  -0.000004
    13  C   -0.015524  -0.004528  -0.000672  -0.000250   0.001204
    14  H    0.000248   0.000208   0.000048   0.000004  -0.000018
    15  H   -0.000104  -0.000026  -0.000006   0.000008  -0.000003
    16  C    0.021965   0.009230  -0.012833  -0.000779   0.002459
    17  C    0.010414  -0.024186   0.023795  -0.008172  -0.020499
    18  H    0.000333  -0.001778   0.000463  -0.000108  -0.000730
    19  C   -0.009545   0.081685   0.064315  -0.006910  -0.025044
    20  H   -0.003974   0.000061   0.002793  -0.002043   0.007907
    21  C    0.053780  -0.232481  -0.108615   0.042840   0.030979
    22  H   -0.000134   0.000393  -0.000297   0.000053   0.000249
    23  C    0.012842  -0.006428  -0.001768   0.000959  -0.009395
    24  C   -0.006694   0.004423   0.000650   0.000947  -0.004172
    25  H   -0.000155   0.000282   0.000014   0.000124  -0.000008
    26  C   -0.022564  -0.030876   0.002331  -0.006161   0.004024
    27  H   -0.000617   0.002175   0.000349  -0.001049   0.002900
    28  C    0.011056  -0.008057  -0.006731  -0.013003   0.000177
    29  H    0.000262  -0.000114  -0.000036  -0.000012  -0.000041
    30  B   -0.232473   0.108685  -0.039492  -0.167608  -0.279417
    31  N    0.004193  -0.099226  -0.005968  -0.010922  -0.012535
    32  C    0.056698   0.106664   0.002285   0.015311  -0.004758
    33  H    0.003294   0.001190   0.000068  -0.000363  -0.000152
    34  H   -0.005492   0.003932  -0.000354   0.004498   0.001296
    35  H   -0.008904  -0.002118   0.000306  -0.000258   0.001201
    36  C    0.010113  -0.038764   0.001834   0.010029   0.021012
    37  H    0.004193   0.009643   0.001223  -0.005857  -0.000987
    38  H   -0.001792  -0.004627  -0.000242   0.001546   0.000102
    39  H    0.001861   0.010135  -0.000898  -0.001230  -0.005519
    40  C    0.459087  -0.189036  -0.016640   0.010276   0.006611
    41  H   -0.010793   0.013945   0.001056  -0.003409   0.002186
    42  H   -0.000865   0.000653  -0.005242   0.005825  -0.002716
    43  H    0.590234   0.011789  -0.001460   0.001651  -0.010099
    44  C    0.011789   5.613134   0.387149   0.438062   0.461799
    45  H   -0.001460   0.387149   0.515041  -0.000384  -0.006133
    46  H    0.001651   0.438062  -0.000384   0.572404  -0.019355
    47  H   -0.010099   0.461799  -0.006133  -0.019355   0.573836
 Mulliken charges:
               1
     1  C    0.698623
     2  C    0.579466
     3  C    0.615486
     4  C    0.549568
     5  C   -0.581086
     6  C   -0.419676
     7  O   -0.038665
     8  C   -0.282060
     9  C   -0.513461
    10  H    0.227624
    11  C   -0.492011
    12  H    0.226106
    13  C   -0.250740
    14  H    0.222942
    15  H    0.215954
    16  C   -0.654079
    17  C   -0.612953
    18  H    0.231990
    19  C   -0.198191
    20  H    0.212777
    21  C    0.518533
    22  H    0.206628
    23  C   -0.615097
    24  C   -0.524172
    25  H    0.243465
    26  C   -0.123075
    27  H    0.173085
    28  C   -0.060001
    29  H    0.201570
    30  B   -0.065100
    31  N    0.105923
    32  C   -0.310112
    33  H    0.196228
    34  H    0.174110
    35  H    0.184750
    36  C   -0.327575
    37  H    0.175897
    38  H    0.157962
    39  H    0.194338
    40  C   -0.712196
    41  H    0.150586
    42  H    0.204481
    43  H    0.214515
    44  C   -0.648974
    45  H    0.177515
    46  H    0.154029
    47  H    0.215075
 Sum of Mulliken charges =  -0.00000
 Mulliken charges with hydrogens summed into heavy atoms:
               1
     1  C    0.698623
     2  C    0.579466
     3  C    0.615486
     4  C    0.549568
     5  C   -0.581086
     6  C   -0.419676
     7  O   -0.038665
     8  C   -0.066105
     9  C   -0.285837
    11  C   -0.265904
    13  C   -0.027799
    16  C   -0.447451
    17  C   -0.380963
    19  C    0.014586
    21  C    0.518533
    23  C   -0.413528
    24  C   -0.280707
    26  C    0.050010
    28  C   -0.060001
    30  B   -0.065100
    31  N    0.105923
    32  C    0.244976
    36  C    0.200621
    40  C   -0.142613
    44  C   -0.102354
 Electronic spatial extent (au):  <R**2>=          10612.7651
 Charge=             -0.0000 electrons
 Dipole moment (field-independent basis, Debye):
    X=              1.6705    Y=              0.3985    Z=              0.1712  Tot=              1.7259
 Quadrupole moment (field-independent basis, Debye-Ang):
   XX=           -134.6378   YY=           -139.2636   ZZ=           -136.3293
   XY=             13.8210   XZ=             -3.9801   YZ=             -2.0590
 Traceless Quadrupole moment (field-independent basis, Debye-Ang):
   XX=              2.1057   YY=             -2.5200   ZZ=              0.4143
   XY=             13.8210   XZ=             -3.9801   YZ=             -2.0590
 Octapole moment (field-independent basis, Debye-Ang**2):
  XXX=           -637.0270  YYY=           -624.2515  ZZZ=            270.6096  XYY=           -194.0823
  XXY=           -164.4669  XXZ=             90.4002  XZZ=           -221.7889  YZZ=           -208.7562
  YYZ=             49.2589  XYZ=            -15.3402
 Hexadecapole moment (field-independent basis, Debye-Ang**3):
 XXXX=          -4569.9265 YYYY=          -4404.5381 ZZZZ=          -5093.7587 XXXY=          -1584.2042
 XXXZ=            860.4133 YYYX=          -1717.2945 YYYZ=            669.1496 ZZZX=            825.8703
 ZZZY=            850.6300 XXYY=          -1420.7745 XXZZ=          -1659.9007 YYZZ=          -1619.1230
 XXYZ=            178.9728 YYXZ=            166.6593 ZZXY=           -567.5960
 N-N= 2.171724301711D+03 E-N=-6.682054694538D+03  KE= 1.002025840589D+03
 Breneman (CHELPG) radii used.
 Generate Potential Derived Charges using the Breneman model, NDens= 1.
 Grid spacing= 0.300 Box extension= 2.800
 NStep X,Y,Z=   46     47     54   Total possible points=      116748
 Number of Points to Fit=   23985

 **********************************************************************

            Electrostatic Properties Using The SCF Density.

 **********************************************************************

       Atomic Center    1 is at   0.069020  0.190940  0.915828
       Atomic Center    2 is at   0.912202  0.957123  1.743545
       Atomic Center    3 is at   2.148054  1.601593  1.234848
       Atomic Center    4 is at   0.376364 -0.044060 -0.515665
       Atomic Center    5 is at   2.142465  2.256587  0.006765
       Atomic Center    6 is at   0.836333  0.991875 -1.329685
       Atomic Center    7 is at   0.988558  2.246904 -0.748938
       Atomic Center    8 is at   0.587126  1.098851  3.095827
       Atomic Center    9 is at  -0.543961  0.504364  3.633331
       Atomic Center   10 is at  -0.779483  0.639148  4.682866
       Atomic Center   11 is at  -1.378228 -0.249426  2.815870
       Atomic Center   12 is at  -2.272731 -0.709534  3.220072
       Atomic Center   13 is at  -1.068739 -0.400210  1.473063
       Atomic Center   14 is at  -1.729027 -0.974774  0.832724
       Atomic Center   15 is at   1.227053  1.702924  3.729635
       Atomic Center   16 is at   0.230616 -1.306498 -1.093921
       Atomic Center   17 is at   0.555582 -1.512462 -2.426844
       Atomic Center   18 is at   0.449326 -2.499955 -2.861726
       Atomic Center   19 is at   1.044453 -0.462122 -3.194677
       Atomic Center   20 is at   1.315881 -0.648546 -4.229057
       Atomic Center   21 is at   1.191775  0.826208 -2.665539
       Atomic Center   22 is at  -0.110207 -2.135867 -0.483907
       Atomic Center   23 is at   3.343478  1.568026  1.959527
       Atomic Center   24 is at   4.481629  2.174930  1.456650
       Atomic Center   25 is at   5.408858  2.130814  2.016410
       Atomic Center   26 is at   4.449903  2.844655  0.236794
       Atomic Center   27 is at   5.350212  3.320340 -0.130451
       Atomic Center   28 is at   3.274583  2.899098 -0.510140
       Atomic Center   29 is at   3.380590  1.038425  2.904556
       Atomic Center   30 is at   1.680019  2.010998 -3.597260
       Atomic Center   31 is at   3.157993  3.567585 -1.759091
       Atomic Center   32 is at   2.346694  4.783131 -1.649703
       Atomic Center   33 is at   2.831344  5.527023 -0.999627
       Atomic Center   34 is at   2.217172  5.217434 -2.641871
       Atomic Center   35 is at   1.363750  4.541829 -1.248967
       Atomic Center   36 is at   4.417700  3.846278 -2.430146
       Atomic Center   37 is at   4.199123  4.214588 -3.433821
       Atomic Center   38 is at   5.020934  4.609270 -1.914005
       Atomic Center   39 is at   5.004539  2.931230 -2.522760
       Atomic Center   40 is at   0.681830  3.187637 -3.899418
       Atomic Center   41 is at   1.146890  4.063836 -4.359087
       Atomic Center   42 is at  -0.033704  2.787510 -4.634162
       Atomic Center   43 is at   0.092669  3.494331 -3.032396
       Atomic Center   44 is at   2.937606  1.754031 -4.512526
       Atomic Center   45 is at   2.619494  1.081357 -5.322908
       Atomic Center   46 is at   3.327406  2.655275 -4.991932
       Atomic Center   47 is at   3.750329  1.239571 -3.992135
   23985 points will be used for fitting atomic charges
 Fitting point charges to electrostatic potential
 Charges from ESP fit, RMS=   0.00436 RRMS=   0.36690:
 ESP charges:
               1
     1  C    0.057309
     2  C    0.070266
     3  C   -0.006246
     4  C   -0.087756
     5  C    0.160835
     6  C    0.318242
     7  O   -0.383567
     8  C   -0.135182
     9  C   -0.113520
    10  H    0.109131
    11  C   -0.118660
    12  H    0.109040
    13  C   -0.118003
    14  H    0.104109
    15  H    0.107795
    16  C   -0.079166
    17  C   -0.167852
    18  H    0.115414
    19  C   -0.068299
    20  H    0.093885
    21  C   -0.282111
    22  H    0.091426
    23  C   -0.154086
    24  C   -0.138888
    25  H    0.121254
    26  C   -0.162182
    27  H    0.128265
    28  C    0.088195
    29  H    0.104163
    30  B    0.601526
    31  N   -0.089721
    32  C    0.053019
    33  H   -0.005681
    34  H    0.027140
    35  H    0.037310
    36  C   -0.276132
    37  H    0.122800
    38  H    0.090274
    39  H    0.109796
    40  C   -0.431267
    41  H    0.080820
    42  H    0.060294
    43  H    0.078212
    44  C   -0.435339
    45  H    0.097861
    46  H    0.071930
    47  H    0.043347
 Sum of ESP charges =   0.00000
 ESP charges with hydrogens summed into heavy atoms:
               1
     1  C    0.057309
     2  C    0.070266
     3  C   -0.006246
     4  C   -0.087756
     5  C    0.160835
     6  C    0.318242
     7  O   -0.383567
     8  C   -0.027387
     9  C   -0.004389
    11  C   -0.009620
    13  C   -0.013893
    16  C    0.012259
    17  C   -0.052438
    19  C    0.025586
    21  C   -0.282111
    23  C   -0.049923
    24  C   -0.017634
    26  C   -0.033918
    28  C    0.088195
    30  B    0.601526
    31  N   -0.089721
    32  C    0.111788
    36  C    0.046738
    40  C   -0.211941
    44  C   -0.222201
 Charge=   0.00000 Dipole=     1.6473     0.4166     0.2050 Tot=     1.7114
 -----------------------------------------------------------------

              Electrostatic Properties (Atomic Units)

 -----------------------------------------------------------------
    Center     Electric         -------- Electric Field --------
               Potential          X             Y             Z
 -----------------------------------------------------------------
    1 Atom    -14.760745
    2 Atom    -14.759871
    3 Atom    -14.762591
    4 Atom    -14.768053
    5 Atom    -14.718481
    6 Atom    -14.722615
    7 Atom    -22.344628
    8 Atom    -14.774050
    9 Atom    -14.773611
   10 Atom     -1.102874
   11 Atom    -14.773708
   12 Atom     -1.103150
   13 Atom    -14.775037
   14 Atom     -1.105264
   15 Atom     -1.103959
   16 Atom    -14.775636
   17 Atom    -14.779329
   18 Atom     -1.107957
   19 Atom    -14.776556
   20 Atom     -1.110378
   21 Atom    -14.796454
   22 Atom     -1.105124
   23 Atom    -14.773718
   24 Atom    -14.771025
   25 Atom     -1.101569
   26 Atom    -14.769552
   27 Atom     -1.094046
   28 Atom    -14.733413
   29 Atom     -1.102756
   30 Atom    -11.469676
   31 Atom    -18.371448
   32 Atom    -14.752788
   33 Atom     -1.118457
   34 Atom     -1.113099
   35 Atom     -1.120093
   36 Atom    -14.744729
   37 Atom     -1.106523
   38 Atom     -1.109229
   39 Atom     -1.106247
   40 Atom    -14.817301
   41 Atom     -1.132313
   42 Atom     -1.117679
   43 Atom     -1.135994
   44 Atom    -14.811737
   45 Atom     -1.111706
   46 Atom     -1.128703
   47 Atom     -1.127586
 -----------------------------------------------------------------
 Unable to Open any file for archive entry.
 1\1\GINC-IRENE4919\SP\RwB97XD\GenECP\C22H22B1N1O1\PENASFRA\10-Apr-2024
 \0\\# wb97xd/genecp scrf=(solvent=toluene,pcm) nosymm pop=(chelpg) scf
 cyc=300\\me_tribenzooxepine_chelpg\\0,1\C,0,0.06902,0.19094,0.915828\C
 ,0,0.912202,0.957123,1.743545\C,0,2.148054,1.601593,1.234848\C,0,0.376
 364,-0.04406,-0.515665\C,0,2.142465,2.256587,0.006765\C,0,0.836333,0.9
 91875,-1.329685\O,0,0.988558,2.246904,-0.748938\C,0,0.587126,1.098851,
 3.095827\C,0,-0.543961,0.504364,3.633331\H,0,-0.779483,0.639148,4.6828
 66\C,0,-1.378228,-0.249426,2.81587\H,0,-2.272731,-0.709534,3.220072\C,
 0,-1.068739,-0.40021,1.473063\H,0,-1.729027,-0.974774,0.832724\H,0,1.2
 27053,1.702924,3.729635\C,0,0.230616,-1.306498,-1.093921\C,0,0.555582,
 -1.512462,-2.426844\H,0,0.449326,-2.499955,-2.861726\C,0,1.044453,-0.4
 62122,-3.194677\H,0,1.315881,-0.648546,-4.229057\C,0,1.191775,0.826208
 ,-2.665539\H,0,-0.110207,-2.135867,-0.483907\C,0,3.343478,1.568026,1.9
 59527\C,0,4.481629,2.17493,1.45665\H,0,5.408858,2.130814,2.01641\C,0,4
 .449903,2.844655,0.236794\H,0,5.350212,3.32034,-0.130451\C,0,3.274583,
 2.899098,-0.51014\H,0,3.38059,1.038425,2.904556\B,0,1.680019,2.010998,
 -3.59726\N,0,3.157993,3.567585,-1.759091\C,0,2.346694,4.783131,-1.6497
 03\H,0,2.831344,5.527023,-0.999627\H,0,2.217172,5.217434,-2.641871\H,0
 ,1.36375,4.541829,-1.248967\C,0,4.4177,3.846278,-2.430146\H,0,4.199123
 ,4.214588,-3.433821\H,0,5.020934,4.60927,-1.914005\H,0,5.004539,2.9312
 3,-2.52276\C,0,0.68183,3.187637,-3.899418\H,0,1.14689,4.063836,-4.3590
 87\H,0,-0.033704,2.78751,-4.634162\H,0,0.092669,3.494331,-3.032396\C,0
 ,2.937606,1.754031,-4.512526\H,0,2.619494,1.081357,-5.322908\H,0,3.327
 406,2.655275,-4.991932\H,0,3.750329,1.239571,-3.992135\\Version=AS64L-
 G16RevC.02\HF=-1006.3534597\RMSD=7.948e-09\Dipole=0.6572348,0.1567677,
 0.0673586\Quadrupole=1.5655651,-1.8735513,0.3079862,10.2755882,-2.9591
 112,-1.5308267\PG=C01 [X(C22H22B1N1O1)]\\@
 The archive entry for this job was punched.


 SUCCESS-- IF YOU HAVE TRIED TO DO SOMETHING AND FAILED
           YOU ARE BETTER OFF THAN IF YOU HAD TRIED TO DO
           NOTHING AND SUCCEEDED.

                   -- FROM THE BACK OF A SUGAR PACKET
 Job cpu time:       0 days  3 hours 35 minutes 13.5 seconds.
 Elapsed time:       0 days  0 hours  2 minutes  6.6 seconds.
 File lengths (MBytes):  RWF=    416 Int=      0 D2E=      0 Chk=     31 Scr=      1
 Normal termination of Gaussian 16 at Wed Apr 10 14:58:31 2024.
