 Entering Gaussian System, Link 0=/ccc/products/gaussian-16-C.02/system/default/g16/g16
 Input=me_tetramethylbenzopiperidine_chelpg.gjf
 Output=me_tetramethylbenzopiperidine_chelpg.log
 Initial command:
 /ccc/products/gaussian-16-C.02/system/default/g16/l1.exe "/ccc/scratch/cont003/gen7343/penasfra/flp/b-n_flp/me_tetramethylbenzopiperidine/Reactant/Gau-987554.inp" -scrdir="/ccc/scratch/cont003/gen7343/penasfra/flp/b-n_flp/me_tetramethylbenzopiperidine/Reactant/"
 Entering Link 1 = /ccc/products/gaussian-16-C.02/system/default/g16/l1.exe PID=    987603.
  
 Copyright (c) 1988-2021, Gaussian, Inc.  All Rights Reserved.
  
 This is part of the Gaussian(R) 16 program.  It is based on
 the Gaussian(R) 09 system (copyright 2009, Gaussian, Inc.),
 the Gaussian(R) 03 system (copyright 2003, Gaussian, Inc.),
 the Gaussian(R) 98 system (copyright 1998, Gaussian, Inc.),
 the Gaussian(R) 94 system (copyright 1995, Gaussian, Inc.),
 the Gaussian 92(TM) system (copyright 1992, Gaussian, Inc.),
 the Gaussian 90(TM) system (copyright 1990, Gaussian, Inc.),
 the Gaussian 88(TM) system (copyright 1988, Gaussian, Inc.),
 the Gaussian 86(TM) system (copyright 1986, Carnegie Mellon
 University), and the Gaussian 82(TM) system (copyright 1983,
 Carnegie Mellon University). Gaussian is a federally registered
 trademark of Gaussian, Inc.
  
 This software contains proprietary and confidential information,
 including trade secrets, belonging to Gaussian, Inc.
  
 This software is provided under written license and may be
 used, copied, transmitted, or stored only in accord with that
 written license.
  
 The following legend is applicable only to US Government
 contracts under FAR:
  
                    RESTRICTED RIGHTS LEGEND
  
 Use, reproduction and disclosure by the US Government is
 subject to restrictions as set forth in subparagraphs (a)
 and (c) of the Commercial Computer Software - Restricted
 Rights clause in FAR 52.227-19.
  
 Gaussian, Inc.
 340 Quinnipiac St., Bldg. 40, Wallingford CT 06492
  
  
 ---------------------------------------------------------------
 Warning -- This program may not be used in any manner that
 competes with the business of Gaussian, Inc. or will provide
 assistance to any competitor of Gaussian, Inc.  The licensee
 of this program is prohibited from giving any competitor of
 Gaussian, Inc. access to this program.  By using this program,
 the user acknowledges that Gaussian, Inc. is engaged in the
 business of creating and licensing software in the field of
 computational chemistry and represents and warrants to the
 licensee that it is not a competitor of Gaussian, Inc. and that
 it will not use this program in any manner prohibited above.
 ---------------------------------------------------------------
  

 Cite this work as:
 Gaussian 16, Revision C.02,
 M. J. Frisch, G. W. Trucks, H. B. Schlegel, G. E. Scuseria, 
 M. A. Robb, J. R. Cheeseman, G. Scalmani, V. Barone, 
 G. A. Petersson, H. Nakatsuji, X. Li, M. Caricato, A. V. Marenich, 
 J. Bloino, B. G. Janesko, R. Gomperts, B. Mennucci, H. P. Hratchian, 
 J. V. Ortiz, A. F. Izmaylov, J. L. Sonnenberg, D. Williams-Young, 
 F. Ding, F. Lipparini, F. Egidi, J. Goings, B. Peng, A. Petrone, 
 T. Henderson, D. Ranasinghe, V. G. Zakrzewski, J. Gao, N. Rega, 
 G. Zheng, W. Liang, M. Hada, M. Ehara, K. Toyota, R. Fukuda, 
 J. Hasegawa, M. Ishida, T. Nakajima, Y. Honda, O. Kitao, H. Nakai, 
 T. Vreven, K. Throssell, J. A. Montgomery, Jr., J. E. Peralta, 
 F. Ogliaro, M. J. Bearpark, J. J. Heyd, E. N. Brothers, K. N. Kudin, 
 V. N. Staroverov, T. A. Keith, R. Kobayashi, J. Normand, 
 K. Raghavachari, A. P. Rendell, J. C. Burant, S. S. Iyengar, 
 J. Tomasi, M. Cossi, J. M. Millam, M. Klene, C. Adamo, R. Cammi, 
 J. W. Ochterski, R. L. Martin, K. Morokuma, O. Farkas, 
 J. B. Foresman, and D. J. Fox, Gaussian, Inc., Wallingford CT, 2019.
 
 ******************************************
 Gaussian 16:  AS64L-G16RevC.02  7-Dec-2021
                 9-Apr-2024 
 ******************************************
 %nprocshared=128
 Will use up to  128 processors via shared memory.
 %mem=30GB
 %chk=me_tetramethylbenzopiperidine_chelpg.chk
 ----------------------------------------------------------------------
 # wb97xd/genecp scrf=(solvent=toluene,pcm) nosymm pop=(chelpg) scfcyc=
 300
 ----------------------------------------------------------------------
 1/38=1,172=1/1;
 2/12=2,15=1,17=6,18=5,40=1/2;
 3/5=7,11=2,16=1,17=8,25=1,30=1,70=2201,72=13,74=-58/1,2,3;
 4//1;
 5/5=2,7=300,38=5,53=13/2;
 6/7=2,8=2,9=2,10=2,15=8,20=3,28=1/1,2;
 99/5=1,9=1/99;
 ------------------------------------
 me_tetramethylbenzopiperidine_chelpg
 ------------------------------------
 Symbolic Z-matrix:
 Charge =  0 Multiplicity = 1
 C                    -0.63532   0.97585   0.85781 
 C                     0.71326   0.96459   0.53066 
 C                     1.39163   2.11459   0.09633 
 C                     0.66726   3.32287   0.02975 
 C                    -0.67328   3.33821   0.4288 
 C                    -1.32836   2.17814   0.82012 
 H                    -1.13278   0.06232   1.16444 
 H                     1.25773   0.02851   0.60996 
 H                    -1.21374   4.27501   0.43535 
 H                    -2.37343   2.2193    1.10816 
 B                     2.93442   1.97088  -0.20649 
 C                     3.71823   2.62185  -1.40553 
 H                     3.12234   3.14977  -2.14443 
 H                     4.44102   3.33919  -0.9947 
 H                     4.32545   1.85579  -1.90503 
 C                     3.77077   1.01206   0.73434 
 H                     3.70125  -0.00151   0.31061 
 H                     4.83675   1.25777   0.75086 
 H                     3.39815   0.94864   1.76003 
 C                     0.80463   5.12366  -1.6787 
 C                     1.92623   5.37701   0.62755 
 C                     1.93314   5.98729  -2.26976 
 C                     2.97913   6.28408  -0.03366 
 C                     2.47562   7.00514  -1.27574 
 H                     1.55981   6.48641  -3.16963 
 H                     2.74934   5.32586  -2.57986 
 H                     3.33981   7.00072   0.71151 
 H                     3.83146   5.65685  -0.31904 
 H                     3.2923    7.57424  -1.7298 
 H                     1.70306   7.73569  -1.01248 
 N                     1.31861   4.51539  -0.42018 
 C                     0.90575   6.22473   1.41972 
 H                     1.40299   6.70507   2.2676 
 H                     0.4527    7.01279   0.82018 
 H                     0.1074    5.59394   1.81793 
 C                    -0.47473   5.98886  -1.56696 
 H                    -0.35513   6.85924  -0.9249 
 H                    -0.73996   6.35372  -2.56399 
 H                    -1.32324   5.40876  -1.20343 
 C                     2.6653    4.51374   1.65994 
 H                     1.98786   3.86881   2.22295 
 H                     3.4298    3.89075   1.1893 
 H                     3.17402   5.17137   2.3696 
 C                     0.47854   4.00799  -2.68341 
 H                     1.30912   3.31237  -2.80082 
 H                    -0.39932   3.43407  -2.37891 
 H                     0.26535   4.45637  -3.65748 
 
                          Input orientation:                          
 ---------------------------------------------------------------------
 Center     Atomic      Atomic             Coordinates (Angstroms)
 Number     Number       Type             X           Y           Z
 ---------------------------------------------------------------------
      1          6           0       -0.635315    0.975849    0.857807
      2          6           0        0.713259    0.964594    0.530659
      3          6           0        1.391627    2.114591    0.096334
      4          6           0        0.667261    3.322868    0.029746
      5          6           0       -0.673282    3.338212    0.428796
      6          6           0       -1.328357    2.178144    0.820122
      7          1           0       -1.132784    0.062316    1.164440
      8          1           0        1.257727    0.028512    0.609956
      9          1           0       -1.213740    4.275005    0.435351
     10          1           0       -2.373429    2.219295    1.108162
     11          5           0        2.934418    1.970878   -0.206491
     12          6           0        3.718225    2.621853   -1.405533
     13          1           0        3.122338    3.149768   -2.144425
     14          1           0        4.441025    3.339189   -0.994702
     15          1           0        4.325447    1.855785   -1.905032
     16          6           0        3.770767    1.012057    0.734336
     17          1           0        3.701253   -0.001507    0.310610
     18          1           0        4.836747    1.257769    0.750858
     19          1           0        3.398150    0.948640    1.760034
     20          6           0        0.804626    5.123663   -1.678697
     21          6           0        1.926234    5.377012    0.627550
     22          6           0        1.933144    5.987286   -2.269759
     23          6           0        2.979134    6.284075   -0.033659
     24          6           0        2.475616    7.005145   -1.275739
     25          1           0        1.559811    6.486413   -3.169626
     26          1           0        2.749335    5.325861   -2.579863
     27          1           0        3.339805    7.000718    0.711511
     28          1           0        3.831464    5.656854   -0.319039
     29          1           0        3.292302    7.574237   -1.729797
     30          1           0        1.703055    7.735688   -1.012484
     31          7           0        1.318614    4.515393   -0.420175
     32          6           0        0.905753    6.224726    1.419715
     33          1           0        1.402988    6.705065    2.267596
     34          1           0        0.452700    7.012795    0.820180
     35          1           0        0.107395    5.593942    1.817932
     36          6           0       -0.474725    5.988864   -1.566957
     37          1           0       -0.355128    6.859239   -0.924900
     38          1           0       -0.739960    6.353720   -2.563987
     39          1           0       -1.323241    5.408755   -1.203425
     40          6           0        2.665297    4.513739    1.659944
     41          1           0        1.987855    3.868809    2.222953
     42          1           0        3.429803    3.890753    1.189299
     43          1           0        3.174016    5.171370    2.369602
     44          6           0        0.478536    4.007992   -2.683408
     45          1           0        1.309115    3.312369   -2.800818
     46          1           0       -0.399323    3.434065   -2.378906
     47          1           0        0.265352    4.456371   -3.657475
 ---------------------------------------------------------------------
                    Distance matrix (angstroms):
                    1          2          3          4          5
     1  C    0.000000
     2  C    1.387734   0.000000
     3  C    2.446440   1.404035   0.000000
     4  C    2.809072   2.411325   1.410345   0.000000
     5  C    2.401302   2.750806   2.423144   1.398761   0.000000
     6  C    1.388251   2.392632   2.815355   2.432607   1.388531
     7  H    1.084455   2.150269   3.424228   3.893442   3.388777
     8  H    2.131311   1.085810   2.152548   3.396774   3.836109
     9  H    3.376015   3.831609   3.401508   2.146915   1.081535
    10  H    2.151715   3.381631   3.900052   3.409787   2.145696
    11  B    3.855620   2.547459   1.578784   2.650224   3.910076
    12  C    5.175456   3.940199   2.815311   3.443810   4.812823
    13  H    5.278189   4.211261   3.014623   3.283959   4.589522
    14  H    5.897999   4.675646   3.462489   3.910378   5.308718
    15  H    5.746018   4.446877   3.560863   4.390675   5.712411
    16  C    4.407960   3.064652   2.698691   3.932943   5.025328
    17  H    4.478892   3.147996   3.139770   4.509486   5.504929
    18  H    5.480363   4.139758   3.609903   4.708423   5.898507
    19  H    4.133230   2.953008   2.855429   4.011061   4.904978
    20  C    5.070665   4.710356   3.542572   2.486063   3.132662
    21  C    5.097528   4.577131   3.348341   2.482315   3.309636
    22  C    6.441518   5.878596   4.570493   3.740228   4.592739
    23  C    6.483534   5.809434   4.463370   3.757329   4.715094
    24  C    7.112125   6.546544   5.193759   4.305067   5.125173
    25  H    7.169736   6.700690   5.459634   4.587008   5.276980
    26  H    6.495848   5.730759   4.395186   3.893208   4.971628
    27  H    7.219559   6.585305   5.296044   4.597160   5.440473
    28  H    6.576389   5.697587   4.321223   3.947318   5.121337
    29  H    8.103122   7.446375   6.062595   5.297261   6.191065
    30  H    7.393334   7.014891   5.737874   4.651031   5.202121
    31  N    4.240218   3.725415   2.456820   1.431365   2.464580
    32  C    5.499213   5.338208   4.345184   3.226402   3.436166
    33  H    6.242283   6.037026   5.078086   4.121714   4.362085
    34  H    6.134322   6.060730   5.039637   3.779733   3.863105
    35  H    4.774960   4.843037   4.088892   2.944289   2.761788
    36  C    5.570959   5.572664   4.610835   3.310759   3.323915
    37  H    6.153928   6.164977   5.158077   3.802966   3.785676
    38  H    6.375039   6.382112   5.439778   4.230105   4.249057
    39  H    4.936859   5.186998   4.462219   3.135878   2.715463
    40  C    4.904501   4.205017   3.134170   2.840399   3.747492
    41  H    4.136890   3.594846   2.820510   2.617666   3.253027
    42  H    5.013156   4.046705   2.916074   3.049376   4.209391
    43  H    5.865060   5.209031   4.205776   3.895601   4.682830
    44  C    4.793199   4.432561   3.485064   2.804678   3.385425
    45  H    4.756645   4.118960   3.136076   2.902444   3.789587
    46  H    4.071220   3.975134   3.327961   2.636583   2.822664
    47  H    5.771742   5.471160   4.565469   3.878396   4.339231
                    6          7          8          9         10
     6  C    0.000000
     7  H    2.152564   0.000000
     8  H    3.369409   2.454208   0.000000
     9  H    2.134950   4.276082   4.916436   0.000000
    10  H    1.084821   2.488961   4.270016   2.454281   0.000000
    11  B    4.389549   4.697254   2.692706   4.788338   5.473871
    12  C    5.533390   6.057085   4.103860   5.517793   6.602194
    13  H    5.435189   6.211844   4.561319   5.169427   6.453569
    14  H    6.158521   6.816681   4.865069   5.907383   7.218932
    15  H    6.284575   6.513868   4.367493   6.481714   7.354347
    16  C    5.231461   5.013164   2.701518   5.965026   6.272823
    17  H    5.505221   4.909278   2.461977   6.516231   6.516887
    18  H    6.233811   6.102086   3.786860   6.768430   7.282777
    19  H    4.973428   4.655069   2.598216   5.838580   5.945639
    20  C    4.412459   6.119985   5.603909   3.043554   5.128545
    21  C    4.567516   6.155634   5.390145   3.333286   5.356236
    22  C    5.890188   7.503260   6.652513   4.489143   6.644899
    23  C    6.011829   7.553383   6.519935   4.672957   6.817340
    24  C    6.493288   8.196212   7.328882   4.898249   7.218073
    25  H    6.543759   8.203854   7.488724   5.057546   7.209587
    26  H    6.172163   7.536283   6.360955   5.089379   7.035268
    27  H    6.712731   8.267443   7.277157   5.314184   7.460588
    28  H    6.326363   7.625177   6.258226   5.285139   7.235635
    29  H    7.547874   9.186237   8.157935   5.989759   8.296380
    30  H    6.590463   8.465319   7.888675   4.751868   7.179516
    31  N    3.742663   5.324495   4.604018   2.683753   4.608586
    32  C    4.661071   6.495852   6.258807   3.043458   5.185902
    33  H    5.481646   7.195360   6.880787   4.013674   5.977269
    34  H    5.152282   7.137327   7.033667   3.228097   5.572036
    35  H    3.837276   5.706486   5.810033   2.323042   4.248118
    36  C    4.576944   6.558776   6.577700   2.737278   4.997098
    37  H    5.089688   7.153199   7.184422   3.043972   5.453069
    38  H    5.406833   7.323745   7.353429   3.679885   5.765966
    39  H    3.812036   5.850425   6.236727   1.995737   4.076639
    40  C    4.702082   5.872488   4.816741   4.074745   5.563964
    41  H    3.977882   5.034702   4.228797   3.689272   4.794210
    42  H    5.070445   5.956068   4.468832   4.720019   6.039690
    43  H    5.624202   6.789947   5.763463   4.878237   6.409378
    44  C    4.346024   5.742007   5.223949   3.558336   5.070419
    45  H    4.621031   5.678819   4.734948   4.214766   5.480517
    46  H    3.560087   4.945903   4.824614   3.048032   4.187171
    47  H    5.270588   6.671834   6.229102   4.355667   5.888885
                   11         12         13         14         15
    11  B    0.000000
    12  C    1.573475   0.000000
    13  H    2.276112   1.086157   0.000000
    14  H    2.182525   1.098086   1.759738   0.000000
    15  H    2.198465   1.097760   1.783023   1.744290   0.000000
    16  C    1.582395   2.678291   3.643835   2.975628   2.825918
    17  H    2.178470   3.134877   4.036443   3.662151   2.957739
    18  H    2.245862   2.786008   3.860249   2.745157   2.769982
    19  H    2.264341   3.594844   4.490639   3.793532   3.887866
    20  C    4.079639   3.850030   3.079765   4.107992   4.808995
    21  C    3.648809   3.864655   3.751683   3.620580   4.956736
    22  C    4.625058   3.906346   3.079188   3.863632   4.788052
    23  C    4.316890   3.979970   3.781497   3.425359   4.992429
    24  C    5.166975   4.557869   4.004597   4.169058   5.507612
    25  H    5.573129   4.765039   3.824360   4.789228   5.539915
    26  H    4.113765   3.103137   2.250360   3.053099   3.870524
    27  H    5.128972   4.878477   4.799321   4.186961   5.855606
    28  H    3.795231   3.225604   3.181254   2.489911   4.148195
    29  H    5.817746   4.981231   4.447104   4.449220   5.813673
    30  H    5.949699   5.510599   4.932172   5.179382   6.499757
    31  N    3.021761   3.211628   2.844537   3.385703   4.280112
    32  C    4.985504   5.373334   5.203048   5.162740   6.468067
    33  H    5.556880   5.960270   5.921337   5.585819   7.033286
    34  H    5.712609   5.907438   5.553272   5.718034   7.001407
    35  H    5.021647   5.679976   5.546543   5.636947   6.754720
    36  C    5.442181   5.379930   4.618744   5.613631   6.343366
    37  H    5.935764   5.897343   5.228784   5.949681   6.921199
    38  H    6.186125   5.928259   5.035741   6.196181   6.806173
    39  H    5.562422   5.764031   5.074611   6.128085   6.709957
    40  C    3.165778   3.753004   4.067251   3.402929   4.746564
    41  H    3.224953   4.208918   4.569252   4.080667   5.153335
    42  H    2.424780   2.902834   3.428893   2.469140   3.810270
    43  H    4.115436   4.587793   4.946310   4.034940   5.530949
    44  C    4.039345   3.748324   2.831385   4.358938   4.476225
    45  H    3.342415   2.868352   1.935218   3.615472   3.467323
    46  H    4.239591   4.308288   3.540890   5.035275   5.003896
    47  H    5.021044   4.512098   3.486962   5.076879   5.130154
                   16         17         18         19         20
    16  C    0.000000
    17  H    1.100767   0.000000
    18  H    1.094057   1.751839   0.000000
    19  H    1.093125   1.759398   1.784253   0.000000
    20  C    5.614804   6.214110   6.091459   5.998504   0.000000
    21  C    4.739888   5.672707   5.045241   4.802034   2.577007
    22  C    6.095437   6.756490   6.318494   6.616149   1.539075
    23  C    5.386156   6.336286   5.415713   5.644446   2.963307
    24  C    6.452513   7.287789   6.535623   6.837268   2.548442
    25  H    7.077981   7.667524   7.310761   7.638584   2.156446
    26  H    5.534993   6.135294   5.656886   6.198042   2.152877
    27  H    6.004191   7.022999   5.934968   6.142512   3.957722
    28  H    4.763132   5.694775   4.637588   5.165035   3.360760
    29  H    7.025887   7.856360   6.959650   7.489236   3.492342
    30  H    7.248036   8.099849   7.408970   7.524907   2.841424
    31  N    4.429369   5.158818   4.935655   4.668994   1.489313
    32  C    5.987484   6.914543   6.369517   5.845079   3.289791
    33  H    6.353550   7.354585   6.615454   6.113487   4.293262
    34  H    6.857536   7.746818   7.234984   6.806833   3.152310
    35  H    5.965580   6.818862   6.504446   5.693088   3.596346
    36  C    6.934606   7.539801   7.481127   7.174391   1.548482
    37  H    7.346129   8.065392   7.819220   7.498743   2.219338
    38  H    7.730392   8.269014   8.249641   8.064490   2.163914
    39  H    7.002484   7.537160   7.680844   7.139065   2.198859
    40  C    3.786897   4.825075   4.017832   3.641019   3.870482
    41  H    3.681819   4.644581   4.135309   3.275761   4.265860
    42  H    2.934304   3.999433   3.017338   2.997127   4.078851
    43  H    4.508890   5.592502   4.549866   4.272383   4.690950
    44  C    5.612075   5.951985   6.192892   6.134163   1.536392
    45  H    4.883491   5.136641   5.411097   5.545507   2.189623
    46  H    5.740039   5.987602   6.476737   6.142391   2.189641
    47  H    6.590845   6.886493   7.110704   7.174120   2.156770
                   21         22         23         24         25
    21  C    0.000000
    22  C    2.960892   0.000000
    23  C    1.539012   2.486428   0.000000
    24  C    2.564205   1.522626   1.521918   0.000000
    25  H    3.972856   1.094653   3.448146   2.166700   0.000000
    26  H    3.311738   1.095361   2.730226   2.143748   1.763425
    27  H    2.154450   3.448726   1.094961   2.167027   4.300711
    28  H    2.145750   2.741918   1.096045   2.138104   3.738238
    29  H    3.500146   2.158074   2.153944   1.094080   2.501598
    30  H    2.881471   2.165777   2.166485   1.095375   2.496892
    31  N    1.486377   2.442351   2.456615   2.875675   3.391545
    32  C    1.545162   3.837203   2.532731   3.215431   4.643094
    33  H    2.174227   4.624269   2.820859   3.714270   5.443876
    34  H    2.210021   3.576466   2.764587   2.912924   4.173886
    35  H    2.184546   4.494140   3.485908   4.143762   5.270840
    36  C    3.309808   2.508339   3.790421   3.134030   2.637317
    37  H    3.132365   2.793767   3.498918   2.856132   2.974018
    38  H    4.271821   2.714098   4.498785   3.524751   2.381880
    39  H    3.729955   3.475027   4.543673   4.121287   3.652298
    40  C    1.535347   4.260276   2.469995   3.855038   5.332756
    41  H    2.196311   4.967434   3.450861   4.723914   6.009574
    42  H    2.187521   4.312832   2.725201   4.084890   5.406898
    43  H    2.152671   4.871258   2.655514   4.139928   5.917604
    44  C    3.864258   2.490902   4.295895   3.866883   2.747387
    45  H    4.049357   2.797609   4.390577   4.162113   3.205218
    46  H    4.268728   3.459950   5.003670   4.715386   3.712179
    47  H    4.686955   2.655369   4.882331   4.129671   2.456561
                   26         27         28         29         30
    26  H    0.000000
    27  H    3.739912   0.000000
    28  H    2.528218   1.763443   0.000000
    29  H    2.464269   2.508220   2.440756   0.000000
    30  H    3.059190   2.488230   3.054921   1.751088   0.000000
    31  N    2.714419   3.397465   2.761807   3.868731   3.296805
    32  C    4.494817   2.651099   3.450439   4.175670   2.972253
    33  H    5.216581   2.502013   3.699584   4.506009   3.451253
    34  H    4.436279   2.889175   3.814766   3.857582   2.333371
    35  H    5.137345   3.694815   4.294100   5.162517   3.891589
    36  C    3.443852   4.556962   4.495642   4.090283   2.846324
    37  H    3.837687   4.043561   4.397766   3.803002   2.238739
    38  H    3.637571   5.271810   5.140363   4.294726   3.207073
    39  H    4.299689   5.286334   5.235903   5.125389   3.822243
    40  C    4.317704   2.745824   2.565742   4.609786   4.295199
    41  H    5.076406   3.731096   3.613547   5.572792   5.049942
    42  H    4.090129   3.147739   2.357017   4.701923   4.755316
    43  H    4.970053   2.474523   2.810111   4.753192   4.491988
    44  C    2.627552   5.354320   4.421664   4.641633   4.264640
    45  H    2.485398   5.483072   4.244771   4.821165   4.787387
    46  H    3.678767   6.021027   5.204172   5.584842   4.979062
    47  H    2.843841   5.917263   5.030255   4.753889   4.451616
                   31         32         33         34         35
    31  N    0.000000
    32  C    2.545087   0.000000
    33  H    3.467837   1.094016   0.000000
    34  H    2.919812   1.088922   1.758624   0.000000
    35  H    2.763954   1.092630   1.765036   1.768584   0.000000
    36  C    2.588878   3.298721   4.329266   2.758074   3.457210
    37  H    2.924000   2.736722   3.647845   1.929111   3.055819
    38  H    3.494725   4.312180   5.297156   3.648206   4.527305
    39  H    2.896718   3.537667   4.600079   3.133989   3.348076
    40  C    2.477994   2.466005   2.600880   3.441812   2.781126
    41  H    2.802156   2.714126   2.896275   3.769499   2.583845
    42  H    2.727215   3.445483   3.631949   4.329727   3.786083
    43  H    3.414041   2.675231   2.345030   3.632783   3.144371
    44  C    2.466862   4.683166   5.713253   4.615695   4.786966
    45  H    2.667362   5.143678   6.099838   5.247688   5.289854
    46  H    2.820852   4.890862   5.961354   4.875182   4.747134
    47  H    3.404843   5.414338   6.438735   5.159438   5.594560
                   36         37         38         39         40
    36  C    0.000000
    37  H    1.088161   0.000000
    38  H    1.094321   1.757911   0.000000
    39  H    1.090257   1.765991   1.756219   0.000000
    40  C    4.737998   4.615816   5.729127   4.990829   0.000000
    41  H    4.992229   4.933682   6.044051   5.007480   1.091715
    42  H    5.219613   5.254279   6.127013   5.533614   1.092743
    43  H    5.429374   5.114441   6.407610   5.748756   1.093109
    44  C    2.465568   3.452094   2.646022   2.720090   4.889009
    45  H    3.445014   4.343853   3.674862   3.725023   4.814656
    46  H    2.681780   3.721277   2.945280   2.476849   5.183619
    47  H    2.695647   3.691305   2.409627   3.074577   5.834207
                   41         42         43         44         45
    41  H    0.000000
    42  H    1.774299   0.000000
    43  H    1.767809   1.760262   0.000000
    44  C    5.135153   4.870481   5.843969   0.000000
    45  H    5.099862   4.555533   5.802326   1.089742   0.000000
    46  H    5.202377   5.253842   6.191551   1.092131   1.763967
    47  H    6.155622   5.815917   6.730320   1.093297   1.769758
                   46         47
    46  H    0.000000
    47  H    1.766817   0.000000
 Symmetry turned off by external request.
 Stoichiometry    C17H28BN
 Framework group  C1[X(C17H28BN)]
 Deg. of freedom   135
 Full point group                 C1      NOp   1
 Rotational constants (GHZ):           0.5262695           0.3485082           0.2995596
 General basis read from cards:  (5D, 7F)
 ======================================================================================================
                                       Pseudopotential Parameters
 ======================================================================================================
  Center     Atomic      Valence      Angular      Power
  Number     Number     Electrons     Momentum     of R      Exponent        Coefficient   SO-Coeffient
 ======================================================================================================
    1          6
                                   No pseudopotential on this center.
    2          6
                                   No pseudopotential on this center.
    3          6
                                   No pseudopotential on this center.
    4          6
                                   No pseudopotential on this center.
    5          6
                                   No pseudopotential on this center.
    6          6
                                   No pseudopotential on this center.
    7          1
                                   No pseudopotential on this center.
    8          1
                                   No pseudopotential on this center.
    9          1
                                   No pseudopotential on this center.
   10          1
                                   No pseudopotential on this center.
   11          5
                                   No pseudopotential on this center.
   12          6
                                   No pseudopotential on this center.
   13          1
                                   No pseudopotential on this center.
   14          1
                                   No pseudopotential on this center.
   15          1
                                   No pseudopotential on this center.
   16          6
                                   No pseudopotential on this center.
   17          1
                                   No pseudopotential on this center.
   18          1
                                   No pseudopotential on this center.
   19          1
                                   No pseudopotential on this center.
   20          6
                                   No pseudopotential on this center.
   21          6
                                   No pseudopotential on this center.
   22          6
                                   No pseudopotential on this center.
   23          6
                                   No pseudopotential on this center.
   24          6
                                   No pseudopotential on this center.
   25          1
                                   No pseudopotential on this center.
   26          1
                                   No pseudopotential on this center.
   27          1
                                   No pseudopotential on this center.
   28          1
                                   No pseudopotential on this center.
   29          1
                                   No pseudopotential on this center.
   30          1
                                   No pseudopotential on this center.
   31          7
                                   No pseudopotential on this center.
   32          6
                                   No pseudopotential on this center.
   33          1
                                   No pseudopotential on this center.
   34          1
                                   No pseudopotential on this center.
   35          1
                                   No pseudopotential on this center.
   36          6
                                   No pseudopotential on this center.
   37          1
                                   No pseudopotential on this center.
   38          1
                                   No pseudopotential on this center.
   39          1
                                   No pseudopotential on this center.
   40          6
                                   No pseudopotential on this center.
   41          1
                                   No pseudopotential on this center.
   42          1
                                   No pseudopotential on this center.
   43          1
                                   No pseudopotential on this center.
   44          6
                                   No pseudopotential on this center.
   45          1
                                   No pseudopotential on this center.
   46          1
                                   No pseudopotential on this center.
   47          1
                                   No pseudopotential on this center.
 ======================================================================================================
   614 basis functions,   936 primitive gaussians,   633 cartesian basis functions
    71 alpha electrons       71 beta electrons
       nuclear repulsion energy      1580.2740250122 Hartrees.
 NAtoms=   47 NActive=   47 NUniq=   47 SFac= 1.00D+00 NAtFMM=   60 NAOKFM=F Big=F
 Integral buffers will be    131072 words long.
 Raffenetti 2 integral format.
 Two-electron integral symmetry is turned off.
 Nuclear repulsion after empirical dispersion term =     1580.2207889370 Hartrees.
 ------------------------------------------------------------------------------
 Polarizable Continuum Model (PCM)
 =================================
 Model                : PCM.
 Atomic radii         : UFF (Universal Force Field).
 Polarization charges : Total charges.
 Charge compensation  : None.
 Solution method      : On-the-fly selection.
 Cavity type          : Scaled VdW (van der Waals Surface) (Alpha=1.100).
 Cavity algorithm     : GePol (No added spheres)
                        Default sphere list used, NSphG=   47.
                        Lebedev-Laikov grids with approx.  5.0 points / Ang**2.
                        Smoothing algorithm: York/Karplus (Gamma=1.0000).
                        Polarization charges: spherical gaussians, with
                                              point-specific exponents (IZeta= 3).
                        Self-potential: point-specific (ISelfS= 7).
                        Self-field    : sphere-specific E.n sum rule (ISelfD= 2).
 Solvent              : Toluene, Eps=   2.374100 Eps(inf)=   2.238315
 ------------------------------------------------------------------------------
 One-electron integrals computed using PRISM.
   1 Symmetry operations used in ECPInt.
 ECPInt:  NShTT=   32385 NPrTT=   98772 LenC2=   30942 LenP2D=   68944.
 LDataN:  DoStor=T MaxTD1= 4 Len=   56
 Number of processors reduced to  70 by ecpmxn.
 NBasis=   614 RedAO= T EigKep=  1.74D-06  NBF=   614
 NBsUse=   611 1.00D-06 EigRej=  6.07D-07 NBFU=   611
 ExpMin= 3.15D-02 ExpMax= 6.29D+03 ExpMxC= 9.49D+02 IAcc=3 IRadAn=         5 AccDes= 0.00D+00
 Harris functional with IExCor= 4639 and IRadAn=       5 diagonalized for initial guess.
 HarFok:  IExCor= 4639 AccDes= 0.00D+00 IRadAn=         5 IDoV= 1 UseB2=F ITyADJ=14
 ICtDFT=  3500011 ScaDFX=  1.000000  1.000000  1.000000  1.000000
 FoFCou: FMM=F IPFlag=           0 FMFlag=      100000 FMFlg1=           0
         NFxFlg=           0 DoJE=T BraDBF=F KetDBF=T FulRan=T
         wScrn=  0.000000 ICntrl=       500 IOpCl=  0 I1Cent=   200000004 NGrid=           0
         NMat0=    1 NMatS0=      1 NMatT0=    0 NMatD0=    1 NMtDS0=    0 NMtDT0=    0
 Symmetry not used in FoFCou.
 Requested convergence on RMS density matrix=1.00D-08 within 300 cycles.
 Requested convergence on MAX density matrix=1.00D-06.
 Requested convergence on             energy=1.00D-06.
 No special actions if energy rises.
 Inv3:  Mode=1 IEnd=    20703387.
 Iteration    1 A*A^-1 deviation from unit magnitude is 7.55D-15 for   2608.
 Iteration    1 A*A^-1 deviation from orthogonality  is 1.72D-15 for   2627    975.
 Iteration    1 A^-1*A deviation from unit magnitude is 7.33D-15 for   2608.
 Iteration    1 A^-1*A deviation from orthogonality  is 2.15D-15 for   2617    306.
 Error on total polarization charges =  0.01120
 SCF Done:  E(RwB97XD) =  -744.264854124     A.U. after   15 cycles
            NFock= 15  Conv=0.69D-08     -V/T= 2.0049

 **********************************************************************

            Population analysis using the SCF Density.

 **********************************************************************

 Alpha  occ. eigenvalues --  -14.41454 -10.32301 -10.32208 -10.31677 -10.28814
 Alpha  occ. eigenvalues --  -10.28569 -10.28388 -10.28096 -10.27286 -10.27133
 Alpha  occ. eigenvalues --  -10.26988 -10.26728 -10.26647 -10.26316 -10.26310
 Alpha  occ. eigenvalues --  -10.26203 -10.24600 -10.24305  -6.84289  -1.03149
 Alpha  occ. eigenvalues --   -0.95201  -0.90791  -0.89896  -0.84846  -0.84149
 Alpha  occ. eigenvalues --   -0.81770  -0.80122  -0.78626  -0.77557  -0.76937
 Alpha  occ. eigenvalues --   -0.76669  -0.71306  -0.69642  -0.67631  -0.66830
 Alpha  occ. eigenvalues --   -0.62587  -0.58908  -0.57518  -0.56103  -0.55554
 Alpha  occ. eigenvalues --   -0.54443  -0.53630  -0.52707  -0.51668  -0.51116
 Alpha  occ. eigenvalues --   -0.50320  -0.49857  -0.49761  -0.49148  -0.48640
 Alpha  occ. eigenvalues --   -0.47470  -0.47010  -0.46233  -0.46111  -0.45928
 Alpha  occ. eigenvalues --   -0.45554  -0.44790  -0.44476  -0.43778  -0.43476
 Alpha  occ. eigenvalues --   -0.43268  -0.42077  -0.40268  -0.39921  -0.38960
 Alpha  occ. eigenvalues --   -0.38822  -0.38036  -0.37390  -0.32636  -0.32187
 Alpha  occ. eigenvalues --   -0.28065
 Alpha virt. eigenvalues --    0.02532   0.03854   0.04640   0.04740   0.04918
 Alpha virt. eigenvalues --    0.05797   0.05937   0.06198   0.06503   0.06647
 Alpha virt. eigenvalues --    0.07320   0.07915   0.08158   0.08505   0.08752
 Alpha virt. eigenvalues --    0.08921   0.09326   0.09670   0.09978   0.10442
 Alpha virt. eigenvalues --    0.10827   0.11281   0.11698   0.11781   0.12146
 Alpha virt. eigenvalues --    0.12701   0.12869   0.13748   0.13838   0.14418
 Alpha virt. eigenvalues --    0.14663   0.14953   0.15143   0.15368   0.15717
 Alpha virt. eigenvalues --    0.15898   0.16275   0.16416   0.16796   0.17099
 Alpha virt. eigenvalues --    0.17314   0.17779   0.18095   0.18495   0.18654
 Alpha virt. eigenvalues --    0.18815   0.19005   0.19430   0.19490   0.19651
 Alpha virt. eigenvalues --    0.19901   0.20106   0.20281   0.20420   0.20754
 Alpha virt. eigenvalues --    0.20846   0.21151   0.21374   0.21583   0.21754
 Alpha virt. eigenvalues --    0.21835   0.22205   0.22520   0.23067   0.23247
 Alpha virt. eigenvalues --    0.23303   0.23496   0.23901   0.24052   0.24251
 Alpha virt. eigenvalues --    0.24541   0.24714   0.24911   0.25233   0.25389
 Alpha virt. eigenvalues --    0.25575   0.26113   0.26174   0.26374   0.26519
 Alpha virt. eigenvalues --    0.27104   0.27496   0.27723   0.28184   0.28426
 Alpha virt. eigenvalues --    0.28534   0.28911   0.29262   0.29620   0.29797
 Alpha virt. eigenvalues --    0.29930   0.30237   0.30368   0.30556   0.30962
 Alpha virt. eigenvalues --    0.31186   0.31569   0.32025   0.32088   0.32227
 Alpha virt. eigenvalues --    0.32699   0.32991   0.33220   0.33633   0.34229
 Alpha virt. eigenvalues --    0.34472   0.34540   0.34870   0.35879   0.36047
 Alpha virt. eigenvalues --    0.36270   0.36790   0.36838   0.37030   0.38078
 Alpha virt. eigenvalues --    0.38380   0.38558   0.38840   0.39035   0.39539
 Alpha virt. eigenvalues --    0.39612   0.40174   0.40592   0.40791   0.41132
 Alpha virt. eigenvalues --    0.41590   0.41885   0.42177   0.42629   0.43141
 Alpha virt. eigenvalues --    0.43627   0.43986   0.44071   0.44652   0.45058
 Alpha virt. eigenvalues --    0.45741   0.46151   0.46491   0.47164   0.47602
 Alpha virt. eigenvalues --    0.48068   0.48348   0.49080   0.49517   0.50111
 Alpha virt. eigenvalues --    0.51067   0.51424   0.52796   0.53761   0.54028
 Alpha virt. eigenvalues --    0.54998   0.56647   0.57450   0.57949   0.59461
 Alpha virt. eigenvalues --    0.59659   0.60523   0.60774   0.61771   0.62099
 Alpha virt. eigenvalues --    0.62897   0.63501   0.64025   0.64844   0.65683
 Alpha virt. eigenvalues --    0.66214   0.66521   0.67038   0.67528   0.67817
 Alpha virt. eigenvalues --    0.68709   0.69024   0.69446   0.69729   0.70433
 Alpha virt. eigenvalues --    0.70826   0.71629   0.72161   0.72599   0.73179
 Alpha virt. eigenvalues --    0.73630   0.73882   0.74798   0.75099   0.75804
 Alpha virt. eigenvalues --    0.76254   0.76531   0.76983   0.77294   0.77911
 Alpha virt. eigenvalues --    0.78360   0.78881   0.79256   0.79716   0.80205
 Alpha virt. eigenvalues --    0.80674   0.80978   0.81521   0.81847   0.83005
 Alpha virt. eigenvalues --    0.83350   0.83489   0.84167   0.84632   0.85279
 Alpha virt. eigenvalues --    0.85806   0.85913   0.86838   0.87422   0.87660
 Alpha virt. eigenvalues --    0.87995   0.88669   0.88950   0.89359   0.89606
 Alpha virt. eigenvalues --    0.90242   0.90383   0.91003   0.91781   0.91978
 Alpha virt. eigenvalues --    0.92282   0.92716   0.93720   0.94044   0.94523
 Alpha virt. eigenvalues --    0.95647   0.96277   0.96523   0.97013   0.97469
 Alpha virt. eigenvalues --    0.99120   1.00034   1.00695   1.01933   1.02964
 Alpha virt. eigenvalues --    1.03120   1.05182   1.05767   1.07080   1.08038
 Alpha virt. eigenvalues --    1.09098   1.09893   1.12398   1.13201   1.14783
 Alpha virt. eigenvalues --    1.15381   1.16174   1.16869   1.18223   1.18987
 Alpha virt. eigenvalues --    1.19609   1.20694   1.21271   1.22155   1.22636
 Alpha virt. eigenvalues --    1.24855   1.26011   1.28004   1.29605   1.29908
 Alpha virt. eigenvalues --    1.30064   1.32689   1.33988   1.34297   1.35345
 Alpha virt. eigenvalues --    1.37259   1.38524   1.39905   1.41486   1.44993
 Alpha virt. eigenvalues --    1.45269   1.46730   1.47218   1.48406   1.49351
 Alpha virt. eigenvalues --    1.51345   1.52622   1.54781   1.56094   1.57075
 Alpha virt. eigenvalues --    1.57585   1.58436   1.60064   1.60093   1.61148
 Alpha virt. eigenvalues --    1.61707   1.62481   1.62752   1.63509   1.64530
 Alpha virt. eigenvalues --    1.64854   1.65044   1.65574   1.66433   1.67303
 Alpha virt. eigenvalues --    1.67378   1.67609   1.68572   1.69215   1.69712
 Alpha virt. eigenvalues --    1.70430   1.71556   1.71964   1.72785   1.73083
 Alpha virt. eigenvalues --    1.74388   1.74979   1.75488   1.75735   1.76110
 Alpha virt. eigenvalues --    1.76790   1.77358   1.78693   1.79013   1.79645
 Alpha virt. eigenvalues --    1.80678   1.81120   1.81483   1.81959   1.82563
 Alpha virt. eigenvalues --    1.82788   1.84000   1.84457   1.84759   1.85398
 Alpha virt. eigenvalues --    1.85931   1.86497   1.87027   1.87900   1.88149
 Alpha virt. eigenvalues --    1.89549   1.90454   1.91121   1.91681   1.92535
 Alpha virt. eigenvalues --    1.93495   1.93717   1.93996   1.95558   1.96054
 Alpha virt. eigenvalues --    1.97759   1.98667   1.99163   1.99388   2.00605
 Alpha virt. eigenvalues --    2.00719   2.01315   2.02814   2.02999   2.03822
 Alpha virt. eigenvalues --    2.05039   2.05644   2.06451   2.07354   2.08651
 Alpha virt. eigenvalues --    2.09722   2.10359   2.11231   2.13825   2.14704
 Alpha virt. eigenvalues --    2.14969   2.16494   2.16869   2.17529   2.19654
 Alpha virt. eigenvalues --    2.20457   2.21475   2.22349   2.23535   2.24013
 Alpha virt. eigenvalues --    2.25528   2.26451   2.27482   2.29137   2.29542
 Alpha virt. eigenvalues --    2.31449   2.32474   2.34121   2.35613   2.36798
 Alpha virt. eigenvalues --    2.37153   2.38220   2.38603   2.40166   2.41476
 Alpha virt. eigenvalues --    2.41743   2.43148   2.43814   2.44842   2.46690
 Alpha virt. eigenvalues --    2.48232   2.49157   2.49574   2.52765   2.53769
 Alpha virt. eigenvalues --    2.54707   2.55995   2.56584   2.58492   2.58753
 Alpha virt. eigenvalues --    2.59220   2.59657   2.60920   2.61687   2.61968
 Alpha virt. eigenvalues --    2.62468   2.64490   2.64911   2.65405   2.66246
 Alpha virt. eigenvalues --    2.66440   2.67001   2.67418   2.68472   2.68732
 Alpha virt. eigenvalues --    2.69597   2.71341   2.72027   2.72421   2.72678
 Alpha virt. eigenvalues --    2.73865   2.74188   2.74651   2.75684   2.77028
 Alpha virt. eigenvalues --    2.78578   2.80143   2.80635   2.81080   2.82688
 Alpha virt. eigenvalues --    2.83210   2.83935   2.84730   2.85217   2.86383
 Alpha virt. eigenvalues --    2.86682   2.87598   2.88252   2.88523   2.89439
 Alpha virt. eigenvalues --    2.89923   2.91010   2.92117   2.93410   2.94321
 Alpha virt. eigenvalues --    2.94381   2.94934   2.96534   2.97690   2.98404
 Alpha virt. eigenvalues --    2.99962   3.01668   3.02539   3.03050   3.04196
 Alpha virt. eigenvalues --    3.04884   3.08256   3.09036   3.11323   3.11646
 Alpha virt. eigenvalues --    3.13773   3.15425   3.16684   3.16778   3.19401
 Alpha virt. eigenvalues --    3.20317   3.21265   3.24792   3.25632   3.28029
 Alpha virt. eigenvalues --    3.29090   3.31086   3.34771   3.37896   3.39431
 Alpha virt. eigenvalues --    3.42491   3.45520   3.46006   3.52593   3.53326
 Alpha virt. eigenvalues --    3.57964   3.58155   3.59013   3.65767   3.68246
 Alpha virt. eigenvalues --    3.70289   3.71722   3.78373   3.80440   3.89009
 Alpha virt. eigenvalues --    3.89201   3.90425   3.90919   3.91468   3.92002
 Alpha virt. eigenvalues --    3.93468   3.94593   3.95443   3.95645   3.96087
 Alpha virt. eigenvalues --    3.96811   3.97406   4.00603   4.00905   4.03284
 Alpha virt. eigenvalues --    4.09064   4.11992   4.13384   4.18516   4.25406
 Alpha virt. eigenvalues --    4.30193   4.31256   4.31794   4.36900   4.38837
 Alpha virt. eigenvalues --    4.45163   4.47919   4.51294   4.97482   5.04427
 Alpha virt. eigenvalues --    5.13379  14.86245  23.80960  23.93048  23.99297
 Alpha virt. eigenvalues --   24.07776  24.11803  24.12609  24.12734  24.14710
 Alpha virt. eigenvalues --   24.15171  24.15557  24.17206  24.18984  24.19907
 Alpha virt. eigenvalues --   24.21683  24.23342  24.24913  24.34253  35.81989
          Condensed to atoms (all electrons):
               1          2          3          4          5          6
     1  C    7.822713  -0.630397  -1.396373   0.924001  -1.013895   0.115174
     2  C   -0.630397   8.182737  -0.215758  -0.915162   0.991539  -0.747879
     3  C   -1.396373  -0.215758   7.187510   0.323631  -0.605741   1.068871
     4  C    0.924001  -0.915162   0.323631   7.883367   0.199306  -2.035869
     5  C   -1.013895   0.991539  -0.605741   0.199306   8.210093  -1.453482
     6  C    0.115174  -0.747879   1.068871  -2.035869  -1.453482   9.645502
     7  H    0.439803  -0.107812   0.028332   0.042341  -0.058955  -0.015440
     8  H   -0.037736   0.467697  -0.141946   0.007145   0.057373  -0.013658
     9  H   -0.033244   0.100462  -0.031263   0.075332   0.531007  -0.335558
    10  H   -0.010118  -0.005521   0.004319   0.044330  -0.073341   0.370373
    11  B    0.267168  -0.124109  -0.064340  -0.223532  -0.247720  -0.167218
    12  C   -0.026550  -0.064946  -0.036941   0.065034   0.011204   0.062551
    13  H   -0.031533  -0.015064   0.068750   0.042875   0.033988   0.022954
    14  H   -0.000245   0.018898   0.026831   0.014279   0.013226   0.004458
    15  H   -0.001606  -0.034386  -0.010591   0.002738  -0.001727   0.001881
    16  C   -0.106167   0.027672  -0.044581  -0.058233   0.012280   0.045444
    17  H    0.030395   0.001870  -0.028816   0.001447  -0.005577  -0.013028
    18  H   -0.011207  -0.006770   0.015409   0.000610   0.001117   0.003943
    19  H   -0.021695  -0.026665   0.061229   0.002377  -0.001070   0.004476
    20  C    0.117893  -0.295776  -0.109417   0.224117  -0.408696  -0.243592
    21  C    0.059380  -0.231202  -0.358125   0.101377  -0.350512  -0.272729
    22  C    0.020725  -0.042492  -0.022728  -0.432753   0.044221   0.031672
    23  C   -0.023502  -0.034264  -0.035084   0.053224  -0.001509   0.052532
    24  C    0.013557  -0.009522   0.004396   0.005747   0.022899   0.020233
    25  H    0.000574   0.000917   0.006690  -0.003088   0.001336  -0.001859
    26  H    0.005276   0.001888  -0.015478  -0.017901  -0.027978  -0.012171
    27  H   -0.000138   0.002055   0.005630   0.011593  -0.002704  -0.001743
    28  H    0.001269   0.004003   0.001891  -0.035026  -0.031325  -0.014543
    29  H   -0.000309  -0.001446  -0.001978   0.004940   0.011384   0.004981
    30  H   -0.000418   0.001760  -0.001333   0.008992  -0.020988  -0.011592
    31  N    0.094542  -0.412720  -0.067062  -0.461727  -0.116698   0.512716
    32  C    0.033164   0.048787  -0.013012   0.002229  -0.009822  -0.122649
    33  H    0.000334   0.000956  -0.000971  -0.007474   0.009610  -0.004010
    34  H    0.002291  -0.001425   0.011258  -0.007920  -0.010274   0.001054
    35  H    0.015008  -0.027304  -0.011371  -0.049299   0.022630   0.090588
    36  C   -0.015085   0.045211  -0.092596   0.204622  -0.051175  -0.112135
    37  H   -0.002695   0.002292   0.008139   0.027432  -0.015094  -0.006509
    38  H    0.000777   0.001010   0.001649  -0.007565   0.006690  -0.006010
    39  H    0.009901  -0.016023   0.005707  -0.042154   0.004925   0.079841
    40  C   -0.056366   0.077604   0.139686  -0.071824   0.118112   0.105720
    41  H   -0.017710  -0.017551   0.018793  -0.007003   0.014667   0.045167
    42  H   -0.025943  -0.007564   0.034481  -0.004949   0.022410   0.015090
    43  H   -0.004448  -0.002725   0.001094   0.000974   0.010115   0.012289
    44  C   -0.042790   0.146213   0.070497  -0.056604   0.098159  -0.009534
    45  H   -0.008001  -0.031747  -0.012638  -0.017225  -0.011900  -0.011767
    46  H    0.015317  -0.008247  -0.005784  -0.023357   0.006556   0.033640
    47  H   -0.002821   0.008819   0.005447   0.019849  -0.001415   0.001934
               7          8          9         10         11         12
     1  C    0.439803  -0.037736  -0.033244  -0.010118   0.267168  -0.026550
     2  C   -0.107812   0.467697   0.100462  -0.005521  -0.124109  -0.064946
     3  C    0.028332  -0.141946  -0.031263   0.004319  -0.064340  -0.036941
     4  C    0.042341   0.007145   0.075332   0.044330  -0.223532   0.065034
     5  C   -0.058955   0.057373   0.531007  -0.073341  -0.247720   0.011204
     6  C   -0.015440  -0.013658  -0.335558   0.370373  -0.167218   0.062551
     7  H    0.466384  -0.012112  -0.001503  -0.005076   0.002457  -0.000287
     8  H   -0.012112   0.515396   0.001294   0.001544  -0.036453  -0.006535
     9  H   -0.001503   0.001294   0.588781  -0.013467   0.012351  -0.010960
    10  H   -0.005076   0.001544  -0.013467   0.448050  -0.000257  -0.000017
    11  B    0.002457  -0.036453   0.012351  -0.000257   6.868656  -0.132792
    12  C   -0.000287  -0.006535  -0.010960  -0.000017  -0.132792   5.541100
    13  H    0.000001  -0.003519  -0.000719  -0.000021  -0.271504   0.351222
    14  H    0.000159  -0.003956  -0.000122  -0.000174  -0.372478   0.514441
    15  H   -0.000070  -0.003012  -0.000624  -0.000030  -0.139234   0.417188
    16  C   -0.000893   0.002672  -0.001563   0.000430  -0.027339  -0.044838
    17  H    0.001059  -0.001333   0.000356  -0.000264  -0.077992  -0.030404
    18  H   -0.000111  -0.002550  -0.000338   0.000004  -0.255587   0.036846
    19  H   -0.000850   0.002958  -0.000230   0.000334  -0.247976   0.005256
    20  C    0.002210  -0.006114   0.065613  -0.006170   0.066272   0.012683
    21  C    0.000149   0.001861   0.000121   0.006057  -0.090431   0.246252
    22  C    0.000461  -0.002545  -0.003864  -0.001494   0.137226  -0.093588
    23  C   -0.000556   0.002213  -0.020138   0.002343   0.420280  -0.162296
    24  C    0.000314  -0.000344  -0.004040  -0.000449  -0.126659   0.073622
    25  H    0.000005  -0.000102   0.000212  -0.000092  -0.013853   0.002359
    26  H   -0.000031   0.000378   0.001057   0.000036   0.099208  -0.020247
    27  H   -0.000009   0.000042   0.000148   0.000008  -0.006552  -0.001211
    28  H   -0.000024   0.000100   0.002929  -0.000074   0.101856  -0.019415
    29  H    0.000005  -0.000012  -0.001108   0.000025  -0.010698   0.002418
    30  H   -0.000012   0.000048   0.008338  -0.000109   0.015748  -0.004276
    31  N    0.003438  -0.010668  -0.143145   0.000541   0.014063  -0.078040
    32  C    0.001128  -0.001486   0.053764  -0.006362  -0.152780   0.047187
    33  H    0.000001   0.000086  -0.004071   0.000148  -0.004090   0.000343
    34  H    0.000065  -0.000241  -0.002030  -0.000052  -0.004190  -0.000439
    35  H    0.000379  -0.000249  -0.022942   0.000324  -0.005861   0.006335
    36  C   -0.001002   0.003305  -0.001600   0.003769   0.001928   0.019238
    37  H   -0.000037   0.000062  -0.003336   0.000421   0.007148  -0.001931
    38  H   -0.000010  -0.000000  -0.003829  -0.000042  -0.005036   0.001166
    39  H    0.000491  -0.000477  -0.012842   0.000343  -0.015687   0.005804
    40  C   -0.000129  -0.007172   0.009462  -0.001280   0.055836  -0.083824
    41  H   -0.000871   0.002029  -0.002292   0.000801  -0.028120  -0.005284
    42  H   -0.000018   0.000228   0.000488  -0.000125  -0.246085   0.061090
    43  H    0.000025  -0.000455  -0.001620   0.000047   0.009471   0.003556
    44  C   -0.000026   0.001776   0.028386   0.000280   0.148623  -0.095717
    45  H    0.000119   0.000900   0.004431  -0.000287   0.012100   0.016481
    46  H   -0.000267   0.000177   0.004798  -0.001817  -0.005771  -0.000990
    47  H    0.000022   0.000141  -0.001896   0.000463   0.007013  -0.000905
              13         14         15         16         17         18
     1  C   -0.031533  -0.000245  -0.001606  -0.106167   0.030395  -0.011207
     2  C   -0.015064   0.018898  -0.034386   0.027672   0.001870  -0.006770
     3  C    0.068750   0.026831  -0.010591  -0.044581  -0.028816   0.015409
     4  C    0.042875   0.014279   0.002738  -0.058233   0.001447   0.000610
     5  C    0.033988   0.013226  -0.001727   0.012280  -0.005577   0.001117
     6  C    0.022954   0.004458   0.001881   0.045444  -0.013028   0.003943
     7  H    0.000001   0.000159  -0.000070  -0.000893   0.001059  -0.000111
     8  H   -0.003519  -0.003956  -0.003012   0.002672  -0.001333  -0.002550
     9  H   -0.000719  -0.000122  -0.000624  -0.001563   0.000356  -0.000338
    10  H   -0.000021  -0.000174  -0.000030   0.000430  -0.000264   0.000004
    11  B   -0.271504  -0.372478  -0.139234  -0.027339  -0.077992  -0.255587
    12  C    0.351222   0.514441   0.417188  -0.044838  -0.030404   0.036846
    13  H    0.781155   0.000118  -0.014485   0.005222  -0.010207   0.012384
    14  H    0.000118   0.622291   0.011881   0.008629  -0.002226   0.006062
    15  H   -0.014485   0.011881   0.524158   0.031673   0.004176   0.016307
    16  C    0.005222   0.008629   0.031673   5.454733   0.418971   0.460854
    17  H   -0.010207  -0.002226   0.004176   0.418971   0.550955  -0.001596
    18  H    0.012384   0.006062   0.016307   0.460854  -0.001596   0.555305
    19  H   -0.009353  -0.003881   0.000971   0.483743  -0.014485  -0.001179
    20  C    0.034531   0.016808   0.006518   0.001867   0.006033  -0.000884
    21  C   -0.047485   0.108979   0.010348  -0.022418   0.002916   0.004385
    22  C   -0.003394  -0.028408   0.004751   0.014345   0.001021   0.002426
    23  C    0.014286  -0.106019  -0.005229  -0.020008   0.001366  -0.007104
    24  C    0.007196   0.043132   0.001134  -0.000824   0.000194  -0.000621
    25  H    0.005004   0.001844   0.000070   0.000185  -0.000062   0.000055
    26  H   -0.046308  -0.009172  -0.002360  -0.003532   0.000891  -0.001679
    27  H    0.000912   0.001317  -0.000208   0.000640  -0.000016  -0.000026
    28  H   -0.001861  -0.032934  -0.000313  -0.006661   0.000535  -0.000688
    29  H    0.004848   0.002696   0.000037   0.000246  -0.000055   0.000113
    30  H   -0.003393  -0.001103  -0.000198  -0.000546   0.000073  -0.000185
    31  N   -0.025287  -0.037679   0.008294   0.010739   0.005705   0.002892
    32  C    0.009541   0.014678   0.002639   0.006997  -0.001582   0.001362
    33  H    0.000419  -0.000559   0.000050   0.000308   0.000032   0.000152
    34  H   -0.000431   0.000885  -0.000122   0.000457  -0.000079   0.000016
    35  H   -0.001485   0.001573   0.000404  -0.000122  -0.000027  -0.000028
    36  C   -0.031695   0.004950   0.000809  -0.007591   0.000233  -0.001006
    37  H    0.003652  -0.001116  -0.000149  -0.000128   0.000013   0.000006
    38  H   -0.001133   0.000278  -0.000048  -0.000121  -0.000020  -0.000018
    39  H    0.003166   0.000876   0.000598   0.000927  -0.000038   0.000166
    40  C    0.009631  -0.031918  -0.004951  -0.013392  -0.006724  -0.003955
    41  H    0.002495  -0.003423  -0.001061   0.005705   0.000469   0.002278
    42  H    0.010595   0.035591   0.008821   0.019792   0.001490   0.011882
    43  H   -0.000827   0.000683   0.000130  -0.002262  -0.000831  -0.000448
    44  C   -0.049380  -0.028988  -0.003380   0.011178   0.000969   0.001414
    45  H   -0.031048   0.007322  -0.007737  -0.006990  -0.000520  -0.002711
    46  H   -0.000283   0.000638   0.000060   0.001253   0.000031   0.000178
    47  H   -0.000524  -0.002081   0.000357   0.000046   0.000075   0.000031
              19         20         21         22         23         24
     1  C   -0.021695   0.117893   0.059380   0.020725  -0.023502   0.013557
     2  C   -0.026665  -0.295776  -0.231202  -0.042492  -0.034264  -0.009522
     3  C    0.061229  -0.109417  -0.358125  -0.022728  -0.035084   0.004396
     4  C    0.002377   0.224117   0.101377  -0.432753   0.053224   0.005747
     5  C   -0.001070  -0.408696  -0.350512   0.044221  -0.001509   0.022899
     6  C    0.004476  -0.243592  -0.272729   0.031672   0.052532   0.020233
     7  H   -0.000850   0.002210   0.000149   0.000461  -0.000556   0.000314
     8  H    0.002958  -0.006114   0.001861  -0.002545   0.002213  -0.000344
     9  H   -0.000230   0.065613   0.000121  -0.003864  -0.020138  -0.004040
    10  H    0.000334  -0.006170   0.006057  -0.001494   0.002343  -0.000449
    11  B   -0.247976   0.066272  -0.090431   0.137226   0.420280  -0.126659
    12  C    0.005256   0.012683   0.246252  -0.093588  -0.162296   0.073622
    13  H   -0.009353   0.034531  -0.047485  -0.003394   0.014286   0.007196
    14  H   -0.003881   0.016808   0.108979  -0.028408  -0.106019   0.043132
    15  H    0.000971   0.006518   0.010348   0.004751  -0.005229   0.001134
    16  C    0.483743   0.001867  -0.022418   0.014345  -0.020008  -0.000824
    17  H   -0.014485   0.006033   0.002916   0.001021   0.001366   0.000194
    18  H   -0.001179  -0.000884   0.004385   0.002426  -0.007104  -0.000621
    19  H    0.558633   0.005347  -0.008288   0.001066   0.000577   0.000040
    20  C    0.005347   9.602240  -0.458425  -1.222027   0.009903   0.325054
    21  C   -0.008288  -0.458425  10.111510   0.098010  -1.945019   0.469870
    22  C    0.001066  -1.222027   0.098010   8.093864  -0.364789  -0.458670
    23  C    0.000577   0.009903  -1.945019  -0.364789   8.948217  -0.691122
    24  C    0.000040   0.325054   0.469870  -0.458670  -0.691122   6.460610
    25  H    0.000001   0.008200   0.018254   0.435012  -0.036884  -0.047624
    26  H    0.000282   0.101020  -0.027638   0.338006   0.035751  -0.078104
    27  H    0.000166   0.009371   0.004993  -0.030128   0.411573  -0.033559
    28  H   -0.000724  -0.037270   0.049603   0.037610   0.467325  -0.082533
    29  H   -0.000044  -0.009047  -0.011453  -0.053710  -0.044462   0.468125
    30  H   -0.000030   0.110762   0.109599  -0.117079  -0.105538   0.471407
    31  N    0.006014  -0.607738  -0.635345   0.121154   0.060971  -0.085590
    32  C   -0.003989   0.143475   0.143302   0.171920  -1.195891   0.178078
    33  H    0.000002  -0.021702  -0.034784   0.001036  -0.047408   0.003825
    34  H    0.000150   0.024655   0.032431   0.067212  -0.034528  -0.001082
    35  H   -0.000385  -0.075536   0.064061  -0.006570  -0.019661   0.014769
    36  C   -0.000224  -0.167149   0.176489  -0.936921   0.177538   0.014464
    37  H    0.000080   0.065929   0.008937  -0.041139   0.075398   0.003317
    38  H   -0.000006  -0.030021  -0.021046  -0.050014   0.004013   0.003137
    39  H   -0.000048   0.018850  -0.080927  -0.001786  -0.004827   0.024842
    40  C    0.005664   0.071874  -0.789588   0.007923   0.241802  -0.153691
    41  H    0.001621  -0.008107   0.016270  -0.018268   0.097456  -0.008570
    42  H    0.013403   0.016366   0.110739  -0.025828  -0.163781   0.047148
    43  H   -0.001847  -0.013862  -0.024658   0.019494  -0.083355  -0.010892
    44  C    0.002109  -0.824299   0.013961   0.362578   0.080003  -0.163823
    45  H   -0.001417  -0.013809   0.083174  -0.046044  -0.029356   0.016356
    46  H    0.000159   0.077178   0.000687   0.048512  -0.026770  -0.005485
    47  H    0.000005  -0.118156  -0.024024  -0.031686   0.027058  -0.018954
              25         26         27         28         29         30
     1  C    0.000574   0.005276  -0.000138   0.001269  -0.000309  -0.000418
     2  C    0.000917   0.001888   0.002055   0.004003  -0.001446   0.001760
     3  C    0.006690  -0.015478   0.005630   0.001891  -0.001978  -0.001333
     4  C   -0.003088  -0.017901   0.011593  -0.035026   0.004940   0.008992
     5  C    0.001336  -0.027978  -0.002704  -0.031325   0.011384  -0.020988
     6  C   -0.001859  -0.012171  -0.001743  -0.014543   0.004981  -0.011592
     7  H    0.000005  -0.000031  -0.000009  -0.000024   0.000005  -0.000012
     8  H   -0.000102   0.000378   0.000042   0.000100  -0.000012   0.000048
     9  H    0.000212   0.001057   0.000148   0.002929  -0.001108   0.008338
    10  H   -0.000092   0.000036   0.000008  -0.000074   0.000025  -0.000109
    11  B   -0.013853   0.099208  -0.006552   0.101856  -0.010698   0.015748
    12  C    0.002359  -0.020247  -0.001211  -0.019415   0.002418  -0.004276
    13  H    0.005004  -0.046308   0.000912  -0.001861   0.004848  -0.003393
    14  H    0.001844  -0.009172   0.001317  -0.032934   0.002696  -0.001103
    15  H    0.000070  -0.002360  -0.000208  -0.000313   0.000037  -0.000198
    16  C    0.000185  -0.003532   0.000640  -0.006661   0.000246  -0.000546
    17  H   -0.000062   0.000891  -0.000016   0.000535  -0.000055   0.000073
    18  H    0.000055  -0.001679  -0.000026  -0.000688   0.000113  -0.000185
    19  H    0.000001   0.000282   0.000166  -0.000724  -0.000044  -0.000030
    20  C    0.008200   0.101020   0.009371  -0.037270  -0.009047   0.110762
    21  C    0.018254  -0.027638   0.004993   0.049603  -0.011453   0.109599
    22  C    0.435012   0.338006  -0.030128   0.037610  -0.053710  -0.117079
    23  C   -0.036884   0.035751   0.411573   0.467325  -0.044462  -0.105538
    24  C   -0.047624  -0.078104  -0.033559  -0.082533   0.468125   0.471407
    25  H    0.523000  -0.039840  -0.001232  -0.001430  -0.006951  -0.002787
    26  H   -0.039840   0.606778   0.002338  -0.009414  -0.020829   0.010398
    27  H   -0.001232   0.002338   0.516394  -0.043369  -0.006952  -0.001102
    28  H   -0.001430  -0.009414  -0.043369   0.623853  -0.019578   0.009971
    29  H   -0.006951  -0.020829  -0.006952  -0.019578   0.492586  -0.036109
    30  H   -0.002787   0.010398  -0.001102   0.009971  -0.036109   0.553754
    31  N    0.034895  -0.051812   0.023250  -0.057721  -0.000124  -0.063821
    32  C    0.016634  -0.025842  -0.049978   0.055909  -0.007813  -0.027302
    33  H   -0.000076  -0.000107   0.002163   0.001398  -0.000507  -0.002621
    34  H    0.002707  -0.001515  -0.006037   0.001168   0.000642  -0.007828
    35  H    0.000487   0.001262   0.000964  -0.009755   0.000917  -0.006577
    36  C   -0.060696   0.105231   0.024690  -0.031023  -0.017420  -0.030203
    37  H   -0.004509   0.001226   0.003457  -0.001014   0.000832  -0.001840
    38  H    0.000741   0.000634  -0.000268   0.000542  -0.000768  -0.002665
    39  H    0.000991  -0.010420   0.000184  -0.000617   0.001912  -0.010368
    40  C   -0.000809   0.000893  -0.028813  -0.034103   0.003625   0.005535
    41  H   -0.000860   0.000056   0.004668  -0.002676   0.000528  -0.000660
    42  H    0.000059  -0.004694   0.005219  -0.025859   0.002026   0.000027
    43  H    0.000354  -0.001288  -0.001001  -0.005766   0.000765  -0.002218
    44  C   -0.024842  -0.020526  -0.009422   0.025989   0.006585   0.016270
    45  H    0.000727   0.020286  -0.000459   0.000768  -0.002076   0.003898
    46  H    0.003783  -0.000675  -0.000547   0.000109   0.000184   0.000029
    47  H   -0.000751  -0.005833  -0.000139   0.000342   0.000524  -0.001090
              31         32         33         34         35         36
     1  C    0.094542   0.033164   0.000334   0.002291   0.015008  -0.015085
     2  C   -0.412720   0.048787   0.000956  -0.001425  -0.027304   0.045211
     3  C   -0.067062  -0.013012  -0.000971   0.011258  -0.011371  -0.092596
     4  C   -0.461727   0.002229  -0.007474  -0.007920  -0.049299   0.204622
     5  C   -0.116698  -0.009822   0.009610  -0.010274   0.022630  -0.051175
     6  C    0.512716  -0.122649  -0.004010   0.001054   0.090588  -0.112135
     7  H    0.003438   0.001128   0.000001   0.000065   0.000379  -0.001002
     8  H   -0.010668  -0.001486   0.000086  -0.000241  -0.000249   0.003305
     9  H   -0.143145   0.053764  -0.004071  -0.002030  -0.022942  -0.001600
    10  H    0.000541  -0.006362   0.000148  -0.000052   0.000324   0.003769
    11  B    0.014063  -0.152780  -0.004090  -0.004190  -0.005861   0.001928
    12  C   -0.078040   0.047187   0.000343  -0.000439   0.006335   0.019238
    13  H   -0.025287   0.009541   0.000419  -0.000431  -0.001485  -0.031695
    14  H   -0.037679   0.014678  -0.000559   0.000885   0.001573   0.004950
    15  H    0.008294   0.002639   0.000050  -0.000122   0.000404   0.000809
    16  C    0.010739   0.006997   0.000308   0.000457  -0.000122  -0.007591
    17  H    0.005705  -0.001582   0.000032  -0.000079  -0.000027   0.000233
    18  H    0.002892   0.001362   0.000152   0.000016  -0.000028  -0.001006
    19  H    0.006014  -0.003989   0.000002   0.000150  -0.000385  -0.000224
    20  C   -0.607738   0.143475  -0.021702   0.024655  -0.075536  -0.167149
    21  C   -0.635345   0.143302  -0.034784   0.032431   0.064061   0.176489
    22  C    0.121154   0.171920   0.001036   0.067212  -0.006570  -0.936921
    23  C    0.060971  -1.195891  -0.047408  -0.034528  -0.019661   0.177538
    24  C   -0.085590   0.178078   0.003825  -0.001082   0.014769   0.014464
    25  H    0.034895   0.016634  -0.000076   0.002707   0.000487  -0.060696
    26  H   -0.051812  -0.025842  -0.000107  -0.001515   0.001262   0.105231
    27  H    0.023250  -0.049978   0.002163  -0.006037   0.000964   0.024690
    28  H   -0.057721   0.055909   0.001398   0.001168  -0.009755  -0.031023
    29  H   -0.000124  -0.007813  -0.000507   0.000642   0.000917  -0.017420
    30  H   -0.063821  -0.027302  -0.002621  -0.007828  -0.006577  -0.030203
    31  N    8.511455  -0.074915   0.039519  -0.008228   0.015820  -0.100816
    32  C   -0.074915   6.977794   0.472088   0.326434   0.330200  -0.270985
    33  H    0.039519   0.472088   0.517731  -0.037134  -0.027063   0.006655
    34  H   -0.008228   0.326434  -0.037134   0.593739  -0.038731  -0.063446
    35  H    0.015820   0.330200  -0.027063  -0.038731   0.538597   0.039198
    36  C   -0.100816  -0.270985   0.006655  -0.063446   0.039198   7.160435
    37  H   -0.031224  -0.071152   0.004597  -0.007715  -0.006338   0.332524
    38  H    0.040551   0.009463  -0.000440   0.004857   0.000224   0.449937
    39  H    0.034072   0.039067   0.000838  -0.003976   0.007640   0.332022
    40  C   -0.082652  -0.601253  -0.063422   0.042426   0.000855   0.008208
    41  H   -0.036853  -0.101853  -0.002114  -0.004411   0.002749   0.007847
    42  H    0.022332   0.087269   0.012270  -0.012013   0.001766   0.004869
    43  H    0.021907  -0.008496  -0.005100   0.008499   0.003097  -0.001721
    44  C   -0.108420  -0.007394   0.000980  -0.001853  -0.011985  -0.690818
    45  H    0.036171   0.005597  -0.000644   0.001281   0.002456   0.051391
    46  H   -0.046435   0.009141  -0.000116   0.002980  -0.001981  -0.075385
    47  H    0.023645  -0.001529   0.000249  -0.002482  -0.000069  -0.034564
              37         38         39         40         41         42
     1  C   -0.002695   0.000777   0.009901  -0.056366  -0.017710  -0.025943
     2  C    0.002292   0.001010  -0.016023   0.077604  -0.017551  -0.007564
     3  C    0.008139   0.001649   0.005707   0.139686   0.018793   0.034481
     4  C    0.027432  -0.007565  -0.042154  -0.071824  -0.007003  -0.004949
     5  C   -0.015094   0.006690   0.004925   0.118112   0.014667   0.022410
     6  C   -0.006509  -0.006010   0.079841   0.105720   0.045167   0.015090
     7  H   -0.000037  -0.000010   0.000491  -0.000129  -0.000871  -0.000018
     8  H    0.000062  -0.000000  -0.000477  -0.007172   0.002029   0.000228
     9  H   -0.003336  -0.003829  -0.012842   0.009462  -0.002292   0.000488
    10  H    0.000421  -0.000042   0.000343  -0.001280   0.000801  -0.000125
    11  B    0.007148  -0.005036  -0.015687   0.055836  -0.028120  -0.246085
    12  C   -0.001931   0.001166   0.005804  -0.083824  -0.005284   0.061090
    13  H    0.003652  -0.001133   0.003166   0.009631   0.002495   0.010595
    14  H   -0.001116   0.000278   0.000876  -0.031918  -0.003423   0.035591
    15  H   -0.000149  -0.000048   0.000598  -0.004951  -0.001061   0.008821
    16  C   -0.000128  -0.000121   0.000927  -0.013392   0.005705   0.019792
    17  H    0.000013  -0.000020  -0.000038  -0.006724   0.000469   0.001490
    18  H    0.000006  -0.000018   0.000166  -0.003955   0.002278   0.011882
    19  H    0.000080  -0.000006  -0.000048   0.005664   0.001621   0.013403
    20  C    0.065929  -0.030021   0.018850   0.071874  -0.008107   0.016366
    21  C    0.008937  -0.021046  -0.080927  -0.789588   0.016270   0.110739
    22  C   -0.041139  -0.050014  -0.001786   0.007923  -0.018268  -0.025828
    23  C    0.075398   0.004013  -0.004827   0.241802   0.097456  -0.163781
    24  C    0.003317   0.003137   0.024842  -0.153691  -0.008570   0.047148
    25  H   -0.004509   0.000741   0.000991  -0.000809  -0.000860   0.000059
    26  H    0.001226   0.000634  -0.010420   0.000893   0.000056  -0.004694
    27  H    0.003457  -0.000268   0.000184  -0.028813   0.004668   0.005219
    28  H   -0.001014   0.000542  -0.000617  -0.034103  -0.002676  -0.025859
    29  H    0.000832  -0.000768   0.001912   0.003625   0.000528   0.002026
    30  H   -0.001840  -0.002665  -0.010368   0.005535  -0.000660   0.000027
    31  N   -0.031224   0.040551   0.034072  -0.082652  -0.036853   0.022332
    32  C   -0.071152   0.009463   0.039067  -0.601253  -0.101853   0.087269
    33  H    0.004597  -0.000440   0.000838  -0.063422  -0.002114   0.012270
    34  H   -0.007715   0.004857  -0.003976   0.042426  -0.004411  -0.012013
    35  H   -0.006338   0.000224   0.007640   0.000855   0.002749   0.001766
    36  C    0.332524   0.449937   0.332022   0.008208   0.007847   0.004869
    37  H    0.623940  -0.044274  -0.049575   0.001731   0.003342   0.000607
    38  H   -0.044274   0.516895  -0.020198   0.000364  -0.000005  -0.000447
    39  H   -0.049575  -0.020198   0.571867  -0.010486  -0.001021   0.002886
    40  C    0.001731   0.000364  -0.010486   6.504006   0.378686   0.209567
    41  H    0.003342  -0.000005  -0.001021   0.378686   0.502122  -0.026573
    42  H    0.000607  -0.000447   0.002886   0.209567  -0.026573   0.656568
    43  H   -0.002764   0.000148   0.000642   0.454944  -0.030184  -0.052883
    44  C    0.014623  -0.038373  -0.017446  -0.019982   0.003872  -0.008847
    45  H   -0.015320   0.007535  -0.002833  -0.009074  -0.001847  -0.005727
    46  H   -0.000873  -0.001519  -0.006479   0.005171  -0.000952   0.000509
    47  H    0.004521  -0.004610   0.004678  -0.001831   0.000228   0.000324
              43         44         45         46         47
     1  C   -0.004448  -0.042790  -0.008001   0.015317  -0.002821
     2  C   -0.002725   0.146213  -0.031747  -0.008247   0.008819
     3  C    0.001094   0.070497  -0.012638  -0.005784   0.005447
     4  C    0.000974  -0.056604  -0.017225  -0.023357   0.019849
     5  C    0.010115   0.098159  -0.011900   0.006556  -0.001415
     6  C    0.012289  -0.009534  -0.011767   0.033640   0.001934
     7  H    0.000025  -0.000026   0.000119  -0.000267   0.000022
     8  H   -0.000455   0.001776   0.000900   0.000177   0.000141
     9  H   -0.001620   0.028386   0.004431   0.004798  -0.001896
    10  H    0.000047   0.000280  -0.000287  -0.001817   0.000463
    11  B    0.009471   0.148623   0.012100  -0.005771   0.007013
    12  C    0.003556  -0.095717   0.016481  -0.000990  -0.000905
    13  H   -0.000827  -0.049380  -0.031048  -0.000283  -0.000524
    14  H    0.000683  -0.028988   0.007322   0.000638  -0.002081
    15  H    0.000130  -0.003380  -0.007737   0.000060   0.000357
    16  C   -0.002262   0.011178  -0.006990   0.001253   0.000046
    17  H   -0.000831   0.000969  -0.000520   0.000031   0.000075
    18  H   -0.000448   0.001414  -0.002711   0.000178   0.000031
    19  H   -0.001847   0.002109  -0.001417   0.000159   0.000005
    20  C   -0.013862  -0.824299  -0.013809   0.077178  -0.118156
    21  C   -0.024658   0.013961   0.083174   0.000687  -0.024024
    22  C    0.019494   0.362578  -0.046044   0.048512  -0.031686
    23  C   -0.083355   0.080003  -0.029356  -0.026770   0.027058
    24  C   -0.010892  -0.163823   0.016356  -0.005485  -0.018954
    25  H    0.000354  -0.024842   0.000727   0.003783  -0.000751
    26  H   -0.001288  -0.020526   0.020286  -0.000675  -0.005833
    27  H   -0.001001  -0.009422  -0.000459  -0.000547  -0.000139
    28  H   -0.005766   0.025989   0.000768   0.000109   0.000342
    29  H    0.000765   0.006585  -0.002076   0.000184   0.000524
    30  H   -0.002218   0.016270   0.003898   0.000029  -0.001090
    31  N    0.021907  -0.108420   0.036171  -0.046435   0.023645
    32  C   -0.008496  -0.007394   0.005597   0.009141  -0.001529
    33  H   -0.005100   0.000980  -0.000644  -0.000116   0.000249
    34  H    0.008499  -0.001853   0.001281   0.002980  -0.002482
    35  H    0.003097  -0.011985   0.002456  -0.001981  -0.000069
    36  C   -0.001721  -0.690818   0.051391  -0.075385  -0.034564
    37  H   -0.002764   0.014623  -0.015320  -0.000873   0.004521
    38  H    0.000148  -0.038373   0.007535  -0.001519  -0.004610
    39  H    0.000642  -0.017446  -0.002833  -0.006479   0.004678
    40  C    0.454944  -0.019982  -0.009074   0.005171  -0.001831
    41  H   -0.030184   0.003872  -0.001847  -0.000952   0.000228
    42  H   -0.052883  -0.008847  -0.005727   0.000509   0.000324
    43  H    0.511024  -0.001848   0.001055   0.000065  -0.000100
    44  C   -0.001848   6.462971   0.308509   0.378428   0.503115
    45  H    0.001055   0.308509   0.648056  -0.030134  -0.050700
    46  H    0.000065   0.378428  -0.030134   0.497212  -0.032996
    47  H   -0.000100   0.503115  -0.050700  -0.032996   0.538641
 Mulliken charges:
               1
     1  C   -0.468270
     2  C   -0.097916
     3  C    0.223683
     4  C    0.184757
     5  C    0.066753
     6  C   -0.740109
     7  H    0.216752
     8  H    0.223248
     9  H    0.169017
    10  H    0.241650
    11  B   -0.143060
    12  C   -0.580946
    13  H    0.175995
    14  H    0.182958
    15  H    0.175524
    16  C   -0.658798
    17  H    0.164608
    18  H    0.162497
    19  H    0.187723
    20  C   -0.466974
    21  C   -0.619613
    22  C   -0.024318
    23  C    0.025270
    24  C   -0.711307
    25  H    0.183249
    26  H    0.122500
    27  H    0.193839
    28  H    0.118548
    29  H    0.242502
    30  H    0.137384
    31  N    0.700031
    32  C   -0.431765
    33  H    0.188622
    34  H    0.132977
    35  H    0.161035
    36  C   -0.380305
    37  H    0.114506
    38  H    0.187876
    39  H    0.154993
    40  C   -0.382085
    41  H    0.216419
    42  H    0.195424
    43  H    0.201224
    44  C   -0.451195
    45  H    0.123400
    46  H    0.190067
    47  H    0.191628
 Sum of Mulliken charges =  -0.00000
 Mulliken charges with hydrogens summed into heavy atoms:
               1
     1  C   -0.251518
     2  C    0.125333
     3  C    0.223683
     4  C    0.184757
     5  C    0.235770
     6  C   -0.498458
    11  B   -0.143060
    12  C   -0.046468
    16  C   -0.143969
    20  C   -0.466974
    21  C   -0.619613
    22  C    0.281431
    23  C    0.337657
    24  C   -0.331422
    31  N    0.700031
    32  C    0.050869
    36  C    0.077070
    40  C    0.230982
    44  C    0.053900
 Electronic spatial extent (au):  <R**2>=          13530.0172
 Charge=              0.0000 electrons
 Dipole moment (field-independent basis, Debye):
    X=             -0.1792    Y=              0.8011    Z=              0.1224  Tot=              0.8300
 Quadrupole moment (field-independent basis, Debye-Ang):
   XX=           -117.7266   YY=           -109.3096   ZZ=           -121.6136
   XY=              1.3136   XZ=             -0.6408   YZ=             -0.5433
 Traceless Quadrupole moment (field-independent basis, Debye-Ang):
   XX=             -1.5100   YY=              6.9070   ZZ=             -5.3970
   XY=              1.3136   XZ=             -0.6408   YZ=             -0.5433
 Octapole moment (field-independent basis, Debye-Ang**2):
  XXX=           -509.1884  YYY=          -1341.5513  ZZZ=             83.1650  XYY=           -150.3286
  XXY=           -460.5676  XXZ=             34.9734  XZZ=           -170.4988  YZZ=           -468.1795
  YYZ=             25.4360  XYZ=              5.3735
 Hexadecapole moment (field-independent basis, Debye-Ang**3):
 XXXX=          -3362.2238 YYYY=         -13755.2460 ZZZZ=          -1484.3762 XXXY=          -2005.7610
 XXXZ=            131.7724 YYYX=          -1880.7991 YYYZ=            610.3077 ZZZX=            153.4306
 ZZZY=            616.8418 XXYY=          -2863.6474 XXZZ=           -821.5630 YYZZ=          -2566.4270
 XXYZ=            250.1697 YYXZ=             75.0423 ZZXY=           -668.4940
 N-N= 1.580220788937D+03 E-N=-4.885912271963D+03  KE= 7.406539664156D+02
 Breneman (CHELPG) radii used.
 Generate Potential Derived Charges using the Breneman model, NDens= 1.
 Grid spacing= 0.300 Box extension= 2.800
 NStep X,Y,Z=   44     45     40   Total possible points=       79200
 Number of Points to Fit=   20890

 **********************************************************************

            Electrostatic Properties Using The SCF Density.

 **********************************************************************

       Atomic Center    1 is at  -0.635315  0.975849  0.857807
       Atomic Center    2 is at   0.713259  0.964594  0.530659
       Atomic Center    3 is at   1.391627  2.114591  0.096334
       Atomic Center    4 is at   0.667261  3.322868  0.029746
       Atomic Center    5 is at  -0.673282  3.338212  0.428796
       Atomic Center    6 is at  -1.328357  2.178144  0.820122
       Atomic Center    7 is at  -1.132784  0.062316  1.164440
       Atomic Center    8 is at   1.257727  0.028512  0.609956
       Atomic Center    9 is at  -1.213740  4.275005  0.435351
       Atomic Center   10 is at  -2.373429  2.219295  1.108162
       Atomic Center   11 is at   2.934418  1.970878 -0.206491
       Atomic Center   12 is at   3.718225  2.621853 -1.405533
       Atomic Center   13 is at   3.122338  3.149768 -2.144425
       Atomic Center   14 is at   4.441025  3.339189 -0.994702
       Atomic Center   15 is at   4.325447  1.855785 -1.905032
       Atomic Center   16 is at   3.770767  1.012057  0.734336
       Atomic Center   17 is at   3.701253 -0.001507  0.310610
       Atomic Center   18 is at   4.836747  1.257769  0.750858
       Atomic Center   19 is at   3.398150  0.948640  1.760034
       Atomic Center   20 is at   0.804626  5.123663 -1.678697
       Atomic Center   21 is at   1.926234  5.377012  0.627550
       Atomic Center   22 is at   1.933144  5.987286 -2.269759
       Atomic Center   23 is at   2.979134  6.284075 -0.033659
       Atomic Center   24 is at   2.475616  7.005145 -1.275739
       Atomic Center   25 is at   1.559811  6.486413 -3.169626
       Atomic Center   26 is at   2.749335  5.325861 -2.579863
       Atomic Center   27 is at   3.339805  7.000718  0.711511
       Atomic Center   28 is at   3.831464  5.656854 -0.319039
       Atomic Center   29 is at   3.292302  7.574237 -1.729797
       Atomic Center   30 is at   1.703055  7.735688 -1.012484
       Atomic Center   31 is at   1.318614  4.515393 -0.420175
       Atomic Center   32 is at   0.905753  6.224726  1.419715
       Atomic Center   33 is at   1.402988  6.705065  2.267596
       Atomic Center   34 is at   0.452700  7.012795  0.820180
       Atomic Center   35 is at   0.107395  5.593942  1.817932
       Atomic Center   36 is at  -0.474725  5.988864 -1.566957
       Atomic Center   37 is at  -0.355128  6.859239 -0.924900
       Atomic Center   38 is at  -0.739960  6.353720 -2.563987
       Atomic Center   39 is at  -1.323241  5.408755 -1.203425
       Atomic Center   40 is at   2.665297  4.513739  1.659944
       Atomic Center   41 is at   1.987855  3.868809  2.222953
       Atomic Center   42 is at   3.429803  3.890753  1.189299
       Atomic Center   43 is at   3.174016  5.171370  2.369602
       Atomic Center   44 is at   0.478536  4.007992 -2.683408
       Atomic Center   45 is at   1.309115  3.312369 -2.800818
       Atomic Center   46 is at  -0.399323  3.434065 -2.378906
       Atomic Center   47 is at   0.265352  4.456371 -3.657475
   20890 points will be used for fitting atomic charges
 Fitting point charges to electrostatic potential
 Charges from ESP fit, RMS=   0.00253 RRMS=   0.37685:
 ESP charges:
               1
     1  C   -0.137709
     2  C   -0.087791
     3  C   -0.358187
     4  C    0.577844
     5  C   -0.229943
     6  C   -0.108131
     7  H    0.108769
     8  H    0.087611
     9  H    0.139680
    10  H    0.104303
    11  B    0.669420
    12  C   -0.592019
    13  H    0.142039
    14  H    0.131734
    15  H    0.096814
    16  C   -0.392826
    17  H    0.076117
    18  H    0.062735
    19  H    0.060088
    20  C    0.824835
    21  C    0.694823
    22  C   -0.235517
    23  C   -0.237877
    24  C    0.146056
    25  H    0.017766
    26  H    0.025580
    27  H    0.021353
    28  H    0.040545
    29  H    0.003425
    30  H   -0.052648
    31  N   -0.903797
    32  C   -0.303436
    33  H    0.058801
    34  H    0.065340
    35  H    0.017044
    36  C   -0.422949
    37  H    0.101902
    38  H    0.066539
    39  H    0.061930
    40  C   -0.258944
    41  H    0.022900
    42  H    0.030137
    43  H    0.057880
    44  C   -0.272856
    45  H    0.008599
    46  H    0.010794
    47  H    0.061224
 Sum of ESP charges =   0.00000
 ESP charges with hydrogens summed into heavy atoms:
               1
     1  C   -0.028941
     2  C   -0.000180
     3  C   -0.358187
     4  C    0.577844
     5  C   -0.090262
     6  C   -0.003828
    11  B    0.669420
    12  C   -0.221432
    16  C   -0.193886
    20  C    0.824835
    21  C    0.694823
    22  C   -0.192171
    23  C   -0.175978
    24  C    0.096833
    31  N   -0.903797
    32  C   -0.162251
    36  C   -0.192577
    40  C   -0.148027
    44  C   -0.192239
 Charge=   0.00000 Dipole=    -0.1892     0.7832     0.1287 Tot=     0.8159
 -----------------------------------------------------------------

              Electrostatic Properties (Atomic Units)

 -----------------------------------------------------------------
    Center     Electric         -------- Electric Field --------
               Potential          X             Y             Z
 -----------------------------------------------------------------
    1 Atom    -14.781247
    2 Atom    -14.780122
    3 Atom    -14.799134
    4 Atom    -14.745112
    5 Atom    -14.783644
    6 Atom    -14.776689
    7 Atom     -1.109633
    8 Atom     -1.114356
    9 Atom     -1.108867
   10 Atom     -1.106818
   11 Atom    -11.470682
   12 Atom    -14.814863
   13 Atom     -1.137815
   14 Atom     -1.115683
   15 Atom     -1.123237
   16 Atom    -14.811699
   17 Atom     -1.108694
   18 Atom     -1.127645
   19 Atom     -1.130084
   20 Atom    -14.730399
   21 Atom    -14.729074
   22 Atom    -14.785970
   23 Atom    -14.783946
   24 Atom    -14.780976
   25 Atom     -1.130880
   26 Atom     -1.135745
   27 Atom     -1.128791
   28 Atom     -1.133651
   29 Atom     -1.130524
   30 Atom     -1.130856
   31 Atom    -18.407628
   32 Atom    -14.793103
   33 Atom     -1.125666
   34 Atom     -1.126353
   35 Atom     -1.127376
   36 Atom    -14.793290
   37 Atom     -1.126017
   38 Atom     -1.125492
   39 Atom     -1.126628
   40 Atom    -14.790218
   41 Atom     -1.128718
   42 Atom     -1.123879
   43 Atom     -1.122722
   44 Atom    -14.796481
   45 Atom     -1.133255
   46 Atom     -1.134147
   47 Atom     -1.128078
 -----------------------------------------------------------------
 Unable to Open any file for archive entry.
 1\1\GINC-IRENE5240\SP\RwB97XD\GenECP\C17H28B1N1\PENASFRA\09-Apr-2024\0
 \\# wb97xd/genecp scrf=(solvent=toluene,pcm) nosymm pop=(chelpg) scfcy
 c=300\\me_tetramethylbenzopiperidine_chelpg\\0,1\C,0,-0.635315,0.97584
 9,0.857807\C,0,0.713259,0.964594,0.530659\C,0,1.391627,2.114591,0.0963
 34\C,0,0.667261,3.322868,0.029746\C,0,-0.673282,3.338212,0.428796\C,0,
 -1.328357,2.178144,0.820122\H,0,-1.132784,0.062316,1.16444\H,0,1.25772
 7,0.028512,0.609956\H,0,-1.21374,4.275005,0.435351\H,0,-2.373429,2.219
 295,1.108162\B,0,2.934418,1.970878,-0.206491\C,0,3.718225,2.621853,-1.
 405533\H,0,3.122338,3.149768,-2.144425\H,0,4.441025,3.339189,-0.994702
 \H,0,4.325447,1.855785,-1.905032\C,0,3.770767,1.012057,0.734336\H,0,3.
 701253,-0.001507,0.31061\H,0,4.836747,1.257769,0.750858\H,0,3.39815,0.
 94864,1.760034\C,0,0.804626,5.123663,-1.678697\C,0,1.926234,5.377012,0
 .62755\C,0,1.933144,5.987286,-2.269759\C,0,2.979134,6.284075,-0.033659
 \C,0,2.475616,7.005145,-1.275739\H,0,1.559811,6.486413,-3.169626\H,0,2
 .749335,5.325861,-2.579863\H,0,3.339805,7.000718,0.711511\H,0,3.831464
 ,5.656854,-0.319039\H,0,3.292302,7.574237,-1.729797\H,0,1.703055,7.735
 688,-1.012484\N,0,1.318614,4.515393,-0.420175\C,0,0.905753,6.224726,1.
 419715\H,0,1.402988,6.705065,2.267596\H,0,0.4527,7.012795,0.82018\H,0,
 0.107395,5.593942,1.817932\C,0,-0.474725,5.988864,-1.566957\H,0,-0.355
 128,6.859239,-0.9249\H,0,-0.73996,6.35372,-2.563987\H,0,-1.323241,5.40
 8755,-1.203425\C,0,2.665297,4.513739,1.659944\H,0,1.987855,3.868809,2.
 222953\H,0,3.429803,3.890753,1.189299\H,0,3.174016,5.17137,2.369602\C,
 0,0.478536,4.007992,-2.683408\H,0,1.309115,3.312369,-2.800818\H,0,-0.3
 99323,3.434065,-2.378906\H,0,0.265352,4.456371,-3.657475\\Version=AS64
 L-G16RevC.02\HF=-744.2648541\RMSD=6.924e-09\Dipole=-0.0705196,0.315177
 7,0.0481696\Quadrupole=-1.1226599,5.1351772,-4.0125174,0.9766064,-0.47
 6396,-0.4039288\PG=C01 [X(C17H28B1N1)]\\@
 The archive entry for this job was punched.


 Some scientists claim that hydrogen, because it is so
 plentiful, is the basic building block of the universe. 
 I dispute that. I say that stupidity is far more
 abundant than hydrogen, and THAT is the basic building 
 block of the universe.
                   --Frank Zappa
 Job cpu time:       0 days  2 hours 59 minutes 31.9 seconds.
 Elapsed time:       0 days  0 hours  1 minutes 42.9 seconds.
 File lengths (MBytes):  RWF=    315 Int=      0 D2E=      0 Chk=     24 Scr=      1
 Normal termination of Gaussian 16 at Tue Apr  9 17:11:29 2024.
