 Entering Gaussian System, Link 0=/ccc/products/gaussian-16-C.02/system/default/g16/g16
 Input=me_xanthene_chelpg.gjf
 Output=me_xanthene_chelpg.log
 Initial command:
 /ccc/products/gaussian-16-C.02/system/default/g16/l1.exe "/ccc/scratch/cont003/gen7343/penasfra/flp/b-n_flp/me_xanthene/reactant/Gau-2111658.inp" -scrdir="/ccc/scratch/cont003/gen7343/penasfra/flp/b-n_flp/me_xanthene/reactant/"
 Entering Link 1 = /ccc/products/gaussian-16-C.02/system/default/g16/l1.exe PID=   2111707.
  
 Copyright (c) 1988-2021, Gaussian, Inc.  All Rights Reserved.
  
 This is part of the Gaussian(R) 16 program.  It is based on
 the Gaussian(R) 09 system (copyright 2009, Gaussian, Inc.),
 the Gaussian(R) 03 system (copyright 2003, Gaussian, Inc.),
 the Gaussian(R) 98 system (copyright 1998, Gaussian, Inc.),
 the Gaussian(R) 94 system (copyright 1995, Gaussian, Inc.),
 the Gaussian 92(TM) system (copyright 1992, Gaussian, Inc.),
 the Gaussian 90(TM) system (copyright 1990, Gaussian, Inc.),
 the Gaussian 88(TM) system (copyright 1988, Gaussian, Inc.),
 the Gaussian 86(TM) system (copyright 1986, Carnegie Mellon
 University), and the Gaussian 82(TM) system (copyright 1983,
 Carnegie Mellon University). Gaussian is a federally registered
 trademark of Gaussian, Inc.
  
 This software contains proprietary and confidential information,
 including trade secrets, belonging to Gaussian, Inc.
  
 This software is provided under written license and may be
 used, copied, transmitted, or stored only in accord with that
 written license.
  
 The following legend is applicable only to US Government
 contracts under FAR:
  
                    RESTRICTED RIGHTS LEGEND
  
 Use, reproduction and disclosure by the US Government is
 subject to restrictions as set forth in subparagraphs (a)
 and (c) of the Commercial Computer Software - Restricted
 Rights clause in FAR 52.227-19.
  
 Gaussian, Inc.
 340 Quinnipiac St., Bldg. 40, Wallingford CT 06492
  
  
 ---------------------------------------------------------------
 Warning -- This program may not be used in any manner that
 competes with the business of Gaussian, Inc. or will provide
 assistance to any competitor of Gaussian, Inc.  The licensee
 of this program is prohibited from giving any competitor of
 Gaussian, Inc. access to this program.  By using this program,
 the user acknowledges that Gaussian, Inc. is engaged in the
 business of creating and licensing software in the field of
 computational chemistry and represents and warrants to the
 licensee that it is not a competitor of Gaussian, Inc. and that
 it will not use this program in any manner prohibited above.
 ---------------------------------------------------------------
  

 Cite this work as:
 Gaussian 16, Revision C.02,
 M. J. Frisch, G. W. Trucks, H. B. Schlegel, G. E. Scuseria, 
 M. A. Robb, J. R. Cheeseman, G. Scalmani, V. Barone, 
 G. A. Petersson, H. Nakatsuji, X. Li, M. Caricato, A. V. Marenich, 
 J. Bloino, B. G. Janesko, R. Gomperts, B. Mennucci, H. P. Hratchian, 
 J. V. Ortiz, A. F. Izmaylov, J. L. Sonnenberg, D. Williams-Young, 
 F. Ding, F. Lipparini, F. Egidi, J. Goings, B. Peng, A. Petrone, 
 T. Henderson, D. Ranasinghe, V. G. Zakrzewski, J. Gao, N. Rega, 
 G. Zheng, W. Liang, M. Hada, M. Ehara, K. Toyota, R. Fukuda, 
 J. Hasegawa, M. Ishida, T. Nakajima, Y. Honda, O. Kitao, H. Nakai, 
 T. Vreven, K. Throssell, J. A. Montgomery, Jr., J. E. Peralta, 
 F. Ogliaro, M. J. Bearpark, J. J. Heyd, E. N. Brothers, K. N. Kudin, 
 V. N. Staroverov, T. A. Keith, R. Kobayashi, J. Normand, 
 K. Raghavachari, A. P. Rendell, J. C. Burant, S. S. Iyengar, 
 J. Tomasi, M. Cossi, J. M. Millam, M. Klene, C. Adamo, R. Cammi, 
 J. W. Ochterski, R. L. Martin, K. Morokuma, O. Farkas, 
 J. B. Foresman, and D. J. Fox, Gaussian, Inc., Wallingford CT, 2019.
 
 ******************************************
 Gaussian 16:  AS64L-G16RevC.02  7-Dec-2021
                10-Apr-2024 
 ******************************************
 %nprocshared=128
 Will use up to  128 processors via shared memory.
 %mem=30GB
 %chk=me_xanthene_chelpg.chk
 ----------------------------------------------------------------------
 # wb97xd/genecp scrf=(solvent=toluene,pcm) nosymm pop=(chelpg) scfcyc=
 300
 ----------------------------------------------------------------------
 1/38=1,172=1/1;
 2/12=2,15=1,17=6,18=5,40=1/2;
 3/5=7,11=2,16=1,17=8,25=1,30=1,70=2201,72=13,74=-58/1,2,3;
 4//1;
 5/5=2,7=300,38=5,53=13/2;
 6/7=2,8=2,9=2,10=2,15=8,20=3,28=1/1,2;
 99/5=1,9=1/99;
 ------------------
 me_xanthene_chelpg
 ------------------
 Symbolic Z-matrix:
 Charge =  0 Multiplicity = 1
 C                    -2.09823   1.42537   1.02561 
 C                    -0.74056   1.29215   1.34101 
 C                     0.1843    2.27065   1.0024 
 C                    -0.24353   3.44339   0.39333 
 C                    -1.59065   3.65174   0.10702 
 C                    -2.47835   2.61911   0.4046 
 H                    -0.39816   0.38981   1.83795 
 H                     1.23531   2.13143   1.22849 
 H                     0.48426   4.2109    0.16036 
 C                    -2.16165   4.96436  -0.42017 
 O                    -3.81583   2.77596   0.13272 
 C                    -1.10674   5.80164  -1.14649 
 H                    -1.53315   6.74753  -1.48593 
 H                    -0.28713   6.05694  -0.47194 
 H                    -0.69633   5.27338  -2.01078 
 C                    -2.69234   5.77485   0.7867 
 H                    -1.87206   6.01156   1.47037 
 H                    -3.14455   6.70911   0.44193 
 H                    -3.4478    5.21192   1.33972 
 C                    -3.34656   4.62413  -1.31945 
 C                    -4.15484   3.55831  -0.94382 
 C                    -3.69131   5.34502  -2.46354 
 C                    -5.32928   3.21101  -1.63773 
 C                    -4.82813   5.01226  -3.18129 
 H                    -3.07395   6.16913  -2.79638 
 C                    -5.64678   3.96797  -2.76681 
 H                    -5.09176   5.57724  -4.06823 
 H                    -6.5384    3.73654  -3.3351 
 B                    -3.07709   0.2245    1.31759 
 N                    -6.08745   2.10236  -1.22213 
 C                    -3.02295  -0.47312   2.72644 
 H                    -3.82816  -0.0025    3.31271 
 H                    -3.26147  -1.54051   2.69164 
 H                    -2.10107  -0.31889   3.29303 
 C                    -4.04054  -0.34252   0.21676 
 H                    -3.43616  -1.07135  -0.34729 
 H                    -4.88254  -0.90503   0.6331 
 H                    -4.40915   0.39349  -0.49962 
 C                    -6.65533   2.16778   0.1183 
 H                    -7.53155   2.83458   0.15558 
 H                    -6.9701    1.16551   0.42021 
 H                    -5.9136    2.51717   0.83234 
 C                    -7.02219   1.55212  -2.18192 
 H                    -7.36142   0.58058  -1.8151 
 H                    -7.9132    2.18355  -2.33615 
 H                    -6.53047   1.39884  -3.14418 
 
                          Input orientation:                          
 ---------------------------------------------------------------------
 Center     Atomic      Atomic             Coordinates (Angstroms)
 Number     Number       Type             X           Y           Z
 ---------------------------------------------------------------------
      1          6           0       -2.098229    1.425373    1.025615
      2          6           0       -0.740555    1.292147    1.341009
      3          6           0        0.184296    2.270646    1.002402
      4          6           0       -0.243529    3.443385    0.393330
      5          6           0       -1.590653    3.651739    0.107015
      6          6           0       -2.478352    2.619109    0.404597
      7          1           0       -0.398164    0.389811    1.837948
      8          1           0        1.235313    2.131427    1.228487
      9          1           0        0.484262    4.210903    0.160361
     10          6           0       -2.161650    4.964364   -0.420172
     11          8           0       -3.815828    2.775959    0.132720
     12          6           0       -1.106740    5.801638   -1.146490
     13          1           0       -1.533151    6.747532   -1.485928
     14          1           0       -0.287130    6.056939   -0.471935
     15          1           0       -0.696333    5.273381   -2.010779
     16          6           0       -2.692342    5.774845    0.786697
     17          1           0       -1.872064    6.011562    1.470373
     18          1           0       -3.144548    6.709110    0.441932
     19          1           0       -3.447799    5.211917    1.339723
     20          6           0       -3.346563    4.624127   -1.319451
     21          6           0       -4.154845    3.558307   -0.943822
     22          6           0       -3.691312    5.345023   -2.463543
     23          6           0       -5.329278    3.211014   -1.637730
     24          6           0       -4.828128    5.012264   -3.181290
     25          1           0       -3.073949    6.169134   -2.796379
     26          6           0       -5.646783    3.967971   -2.766812
     27          1           0       -5.091760    5.577238   -4.068233
     28          1           0       -6.538395    3.736544   -3.335096
     29          5           0       -3.077093    0.224496    1.317588
     30          7           0       -6.087450    2.102360   -1.222127
     31          6           0       -3.022954   -0.473116    2.726440
     32          1           0       -3.828158   -0.002501    3.312707
     33          1           0       -3.261471   -1.540505    2.691640
     34          1           0       -2.101067   -0.318891    3.293030
     35          6           0       -4.040539   -0.342518    0.216755
     36          1           0       -3.436164   -1.071349   -0.347294
     37          1           0       -4.882543   -0.905030    0.633100
     38          1           0       -4.409146    0.393493   -0.499621
     39          6           0       -6.655331    2.167776    0.118299
     40          1           0       -7.531549    2.834578    0.155579
     41          1           0       -6.970104    1.165513    0.420206
     42          1           0       -5.913597    2.517166    0.832344
     43          6           0       -7.022187    1.552118   -2.181916
     44          1           0       -7.361419    0.580578   -1.815100
     45          1           0       -7.913200    2.183550   -2.336148
     46          1           0       -6.530466    1.398835   -3.144178
 ---------------------------------------------------------------------
                    Distance matrix (angstroms):
                    1          2          3          4          5
     1  C    0.000000
     2  C    1.400179   0.000000
     3  C    2.434121   1.388332   0.000000
     4  C    2.812840   2.402697   1.389000   0.000000
     5  C    2.461334   2.795189   2.420657   1.392886   0.000000
     6  C    1.398271   2.378578   2.751089   2.382014   1.393876
     7  H    2.149999   1.085537   2.138910   3.381589   3.880507
     8  H    3.413528   2.149676   1.084036   2.146088   3.399284
     9  H    3.895780   3.378349   2.136261   1.083069   2.149601
    10  C    3.823451   4.313519   3.844905   2.579603   1.525434
    11  O    2.360400   3.622011   4.124643   3.643446   2.391455
    12  C    4.985257   5.163066   4.330406   2.945766   2.535254
    13  H    5.912067   6.195241   5.402214   4.013991   3.482055
    14  H    5.193663   5.118164   4.090468   2.753407   2.796309
    15  H    5.098251   5.204485   4.344098   3.055103   2.813287
    16  C    4.396357   4.920500   4.538831   3.403987   2.486617
    17  H    4.613252   4.854887   4.294423   3.226094   2.739836
    18  H    5.417873   5.994248   5.576315   4.368436   3.445907
    19  H    4.032111   4.763798   4.685827   3.780306   2.720793
    20  C    4.158088   4.997141   4.837028   3.735852   2.462430
    21  C    3.557774   4.691834   4.926865   4.135163   2.772737
    22  C    5.484140   6.293440   6.040274   4.864685   3.726627
    23  C    4.552098   5.797527   6.184989   5.481245   4.149180
    24  C    6.165727   7.141338   7.081253   6.021448   4.810948
    25  H    6.169517   6.807915   6.343903   5.061149   4.119119
    26  C    5.782693   6.935798   7.147683   6.281468   4.981072
    27  H    7.221253   8.158118   8.030047   6.925620   5.779100
    28  H    6.638704   7.839387   8.133715   7.322052   6.027891
    29  B    1.576556   2.569015   3.862995   4.386865   3.926956
    30  N    4.628665   5.984597   6.656699   6.209627   4.938459
    31  C    2.711491   3.200768   4.559275   5.339250   5.091886
    32  H    3.203478   3.885486   5.157954   5.765974   5.351295
    33  H    3.595164   4.025312   5.408485   6.263335   6.035836
    34  H    2.860705   2.873469   4.144341   5.100336   5.116358
    35  C    2.748138   3.850451   5.029423   5.364842   4.687011
    36  H    3.147788   3.962674   5.108653   5.578913   5.091156
    37  H    3.652020   4.741813   5.991173   6.362912   5.646012
    38  H    2.954904   4.201673   5.184543   5.239424   4.350641
    39  C    4.705482   6.102976   6.897298   6.543243   5.277617
    40  H    5.680122   7.064130   7.782634   7.317268   5.997029
    41  H    4.916219   6.298507   7.262624   7.101847   5.934467
    42  H    3.973210   5.340391   6.105243   5.761969   4.527825
    43  C    5.877898   7.206767   7.911356   7.493930   6.256930
    44  H    6.040241   7.369070   8.229973   7.983557   6.813831
    45  H    6.759450   8.109434   8.759163   8.237784   6.935360
    46  H    6.085442   7.324708   7.939912   7.497981   6.328316
                    6          7          8          9         10
     6  C    0.000000
     7  H    3.369191   0.000000
     8  H    3.835093   2.464329   0.000000
     9  H    3.372023   4.265409   2.455441   0.000000
    10  C    2.506145   5.397733   4.720484   2.811685   0.000000
    11  O    1.373813   4.503547   5.208661   4.533277   2.798412
    12  C    3.796799   6.220677   4.959453   2.601843   1.530164
    13  H    4.638035   7.263399   6.028339   3.635204   2.170377
    14  H    4.169945   6.120803   4.540805   2.098259   2.170305
    15  H    4.006843   6.225019   4.908765   2.690077   2.184646
    16  C    3.185979   5.947014   5.375514   3.595695   1.547594
    17  H    3.607243   5.823365   4.976922   3.242033   2.180515
    18  H    4.144070   7.030293   6.384123   4.414587   2.180241
    19  H    2.921804   5.727234   5.606544   4.225403   2.193785
    20  C    2.783205   6.049104   5.805095   4.127447   1.525937
    21  C    2.347542   5.647146   5.984038   4.813150   2.494801
    22  C    4.138612   7.341783   6.944776   5.060288   2.580723
    23  C    3.556576   6.659986   7.243933   6.166860   3.819758
    24  C    4.909911   8.135380   8.031854   6.326950   3.838772
    25  H    4.817018   7.876382   7.146493   5.023728   2.816047
    26  C    4.681476   7.845702   8.166918   6.798314   4.318063
    27  H    5.965454   9.155447   8.942075   7.130210   4.719058
    28  H    5.631866   8.698474   9.156049   7.858813   5.400020
    29  B    2.631770   2.734001   4.716055   5.469357   5.130711
    30  N    3.992349   6.683177   7.721995   7.038794   4.924033
    31  C    3.905048   2.902341   5.211559   6.389473   6.341072
    32  H    4.141488   3.754155   5.876764   6.803457   6.432836
    33  H    4.811053   3.557167   5.987067   7.315503   7.294265
    34  H    4.137298   2.349340   4.625779   6.084125   6.457888
    35  C    3.353647   4.053575   5.914273   6.419552   5.665589
    36  H    3.886158   4.017426   5.879078   6.597700   6.169241
    37  H    4.272225   4.820573   6.855853   7.429593   6.554573
    38  H    3.082035   4.642437   6.153592   6.241285   5.094155
    39  C    4.211036   6.728335   7.968444   7.426300   5.320153
    40  H    5.063915   7.726088   8.860216   8.133113   5.805454
    41  H    4.721125   6.767725   8.301516   8.056643   6.185364
    42  H    3.463274   5.996406   7.170261   6.652286   4.651310
    43  C    5.336193   7.835046   8.952807   8.300733   6.194512
    44  H    5.738206   7.865626   9.250533   8.867718   6.942694
    45  H    6.102374   8.781591   9.818586   8.992224   6.669649
    46  H    5.522907   7.965227   8.942271   8.248279   6.262568
                   11         12         13         14         15
    11  O    0.000000
    12  C    4.257965   0.000000
    13  H    4.858398   1.091678   0.000000
    14  H    4.856145   1.091771   1.748619   0.000000
    15  H    4.534639   1.092925   1.774501   1.774669   0.000000
    16  C    3.268520   2.500413   2.730324   2.729245   3.472951
    17  H    4.004580   2.734549   3.065327   2.507316   3.747756
    18  H    4.001988   2.738476   2.512911   3.070068   3.751115
    19  H    2.743391   3.465485   3.742766   3.739785   4.335921
    20  C    2.396818   2.536386   2.797325   3.483011   2.814815
    21  C    1.373297   3.790060   4.163930   4.628721   4.005144
    22  C    3.654610   2.936518   2.753257   4.007715   3.029856
    23  C    2.369451   4.978200   5.190432   5.906067   5.084949
    24  C    4.124133   4.314192   4.091733   5.390048   4.302326
    25  H    4.543527   2.593665   2.103779   3.630701   2.659436
    26  C    3.630506   5.157496   5.127240   6.193232   5.175194
    27  H    5.207991   4.946445   4.549899   6.020626   4.862636
    28  H    4.512299   6.209467   6.126821   7.256737   6.184284
    29  B    2.908540   6.407689   7.265911   6.708478   6.499022
    30  N    2.729398   6.204664   6.510672   7.060113   6.304085
    31  C    4.232319   7.618661   8.491249   7.768909   7.802348
    32  H    4.222832   7.808878   8.594004   7.973657   8.122977
    33  H    5.048489   8.560442   9.440907   8.750775   8.667279
    34  H    4.744055   7.626198   8.549579   7.623420   7.834359
    35  C    3.127692   6.943793   7.710702   7.450867   6.905356
    36  H    3.895682   7.300882   8.127290   7.793872   7.108407
    37  H    3.864963   7.899559   8.618028   8.414745   7.917526
    38  H    2.535355   6.369643   7.044002   7.004741   6.315211
    39  C    2.903941   6.752148   7.055809   7.485182   7.048930
    40  H    3.716254   7.195624   7.347553   7.953552   7.573707
    41  H    3.553258   7.637227   8.022016   8.329712   7.883176
    42  H    2.226451   6.148936   6.516033   6.774088   6.549803
    43  C    4.139573   7.356836   7.589878   8.281210   7.341220
    44  H    4.602707   8.174810   8.491666   9.046557   8.153776
    45  H    4.820240   7.799599   7.890363   8.754163   7.857232
    46  H    4.472560   7.265827   7.505432   8.235172   7.094632
                   16         17         18         19         20
    16  C    0.000000
    17  H    1.093757   0.000000
    18  H    1.093711   1.778617   0.000000
    19  H    1.092447   1.771847   1.771885   0.000000
    20  C    2.487572   3.447063   2.736866   2.725244   0.000000
    21  C    3.169645   4.130119   3.587279   2.906702   1.389384
    22  C    3.427353   4.385161   3.255990   3.813378   1.395525
    23  C    4.405055   5.427311   4.618952   4.050778   2.455473
    24  C    4.570343   5.601328   4.340676   4.731250   2.410836
    25  H    3.624848   4.435598   3.283781   4.261850   2.154688
    26  C    4.961949   6.031460   4.906227   4.821469   2.795784
    27  H    5.419096   6.421155   5.041265   5.664102   3.392630
    28  H    5.994662   7.074100   5.883901   5.795036   3.877940
    29  B    5.588940   5.913169   6.543817   5.001228   5.136472
    30  N    5.389738   6.348299   5.714185   4.816656   3.725754
    31  C    6.550490   6.704722   7.537780   5.867118   6.515815
    32  H    6.406913   6.587067   7.331739   5.588157   6.564641
    33  H    7.580703   7.775324   8.551667   6.888948   7.355187
    34  H    6.615507   6.591597   7.655744   6.018217   6.874567
    35  C    6.290040   6.829947   7.111889   5.697732   5.244911
    36  H    6.979225   7.477831   7.825820   6.505812   5.778543
    37  H    7.031451   7.589681   7.812317   6.322566   6.061622
    38  H    5.793184   6.471504   6.509435   5.246388   4.438408
    39  C    5.400276   6.283505   5.749265   4.587694   4.364485
    40  H    5.697491   6.622060   5.860015   4.871442   4.784591
    41  H    6.299167   7.111755   6.735489   5.442934   5.302685
    42  H    4.581598   5.380695   5.039092   3.687720   3.957167
    43  C    6.737332   7.729788   6.965287   6.210662   4.867371
    44  H    7.453190   8.391838   7.774001   6.835103   5.719705
    45  H    7.064483   8.101765   7.137119   6.528617   5.276766
    46  H    7.023705   8.016985   7.247320   6.644381   4.885629
                   21         22         23         24         25
    21  C    0.000000
    22  C    2.390977   0.000000
    23  C    1.407627   2.814053   0.000000
    24  C    2.752011   1.385005   2.424506   0.000000
    25  H    3.378864   1.082163   3.896081   2.136270   0.000000
    26  C    2.391024   2.410832   1.395930   1.390157   3.386070
    27  H    3.836123   2.142477   3.400408   1.084143   2.457542
    28  H    3.381016   3.384182   2.149232   2.139189   4.267329
    29  B    4.170110   6.394843   4.767130   6.799173   7.229347
    30  N    2.435610   4.218703   1.405939   3.727164   5.300765
    31  C    5.568157   7.825175   6.159377   8.261315   8.638496
    32  H    5.559147   7.872725   6.089899   8.265580   8.716584
    33  H    6.325550   8.612269   6.752496   8.937813   9.465308
    34  H    6.099310   8.230853   6.869787   8.819008   8.951082
    35  C    4.071418   6.297149   4.210410   6.390673   7.239812
    36  H    4.722929   6.761171   4.856721   6.854155   7.652046
    37  H    4.789322   7.076114   4.722082   7.040376   8.066978
    38  H    3.205937   5.374935   3.174958   5.357233   6.357348
    39  C    3.051902   5.054326   2.435241   4.724095   6.110034
    40  H    3.624168   5.282949   2.864901   4.815132   6.301073
    41  H    3.938492   6.044401   3.333389   5.688262   7.110743
    42  H    2.707757   4.878340   2.631372   4.849022   5.879464
    43  C    3.712051   5.055707   2.431875   4.217257   6.105979
    44  H    4.461851   6.048975   3.328701   5.284305   7.111770
    45  H    4.237188   5.275934   2.867076   4.270077   6.286099
    46  H    3.892102   4.908814   2.645039   3.994521   5.901206
                   26         27         28         29         30
    26  C    0.000000
    27  H    2.142776   0.000000
    28  H    1.082348   2.453242   0.000000
    29  B    6.107310   7.856068   6.779569   0.000000
    30  N    2.461858   4.600706   2.708975   4.363344   0.000000
    31  C    7.535486   9.330291   8.174459   1.573041   5.622757
    32  H    7.485492   9.338547   8.094389   2.143858   5.486307
    33  H    8.113428   9.985395   8.654884   2.244380   6.047660
    34  H    8.226237   9.894280   8.948100   2.269420   6.491560
    35  C    5.482883   7.383068   5.957657   1.568938   3.498236
    36  H    6.011294   7.796800   6.454970   2.140088   4.226947
    37  H    5.990793   8.010375   6.327135   2.236963   3.733371
    38  H    4.410079   6.330258   4.873357   2.259463   2.501788
    39  C    3.547074   5.621053   3.794818   4.244811   1.457227
    40  H    3.657498   5.596011   3.739614   5.291972   2.125944
    41  H    4.445451   6.567920   4.571528   4.104430   2.086628
    42  H    3.889723   5.835676   4.386891   3.679341   2.103126
    43  C    2.840807   4.846270   2.517061   5.438095   1.448342
    44  H    3.914098   5.932501   3.598316   5.319396   2.071336
    45  H    2.916552   4.741072   2.302124   6.369899   2.140327
    46  H    2.742947   4.514732   2.345505   5.763004   2.094156
                   31         32         33         34         35
    31  C    0.000000
    32  H    1.101608   0.000000
    33  H    1.094267   1.752802   0.000000
    34  H    1.093017   1.755942   1.789008   0.000000
    35  C    2.711283   3.121800   2.857827   3.636699   0.000000
    36  H    3.158554   3.832976   3.079894   3.949764   1.102096
    37  H    2.833142   3.017711   2.696162   3.892993   1.094867
    38  H    3.616630   3.876623   3.904056   4.496545   1.091228
    39  C    5.193349   4.786152   5.647275   6.083071   3.626073
    40  H    6.154478   5.633079   6.618650   7.019836   4.720681
    41  H    4.856317   4.427487   5.122100   5.845006   3.301197
    42  H    4.570033   4.104872   5.191864   5.351035   3.473484
    43  C    6.647360   6.542900   6.889038   7.595599   4.270069
    44  H    6.368527   6.254464   6.451300   7.387377   4.001098
    45  H    7.523442   7.305885   7.796526   8.469401   5.281651
    46  H    7.090204   7.138457   7.306355   8.000488   4.530774
                   36         37         38         39         40
    36  H    0.000000
    37  H    1.755234   0.000000
    38  H    1.765123   1.786987   0.000000
    39  C    4.590397   3.584680   2.928353   0.000000
    40  H    5.681666   4.607595   4.017161   1.101714   0.000000
    41  H    4.252216   2.947946   2.828534   1.093051   1.780737
    42  H    4.517373   3.579692   2.923609   1.087246   1.782282
    43  C    4.807076   4.305806   3.316702   2.409275   2.714413
    44  H    4.504547   3.787551   3.237499   2.599190   2.998839
    45  H    5.881646   5.247918   4.342295   2.758042   2.603497
    46  H    4.847584   4.721363   3.536155   3.354194   3.735227
                   41         42         43         44         45
    41  H    0.000000
    42  H    1.764378   0.000000
    43  C    2.631200   3.353513   0.000000
    44  H    2.343474   3.585460   1.092484   0.000000
    45  H    3.085987   3.761523   1.102904   1.773548   0.000000
    46  H    3.598966   4.176592   1.091436   1.768184   1.783436
                   46
    46  H    0.000000
 Symmetry turned off by external request.
 Stoichiometry    C19H24BNO
 Framework group  C1[X(C19H24BNO)]
 Deg. of freedom   132
 Full point group                 C1      NOp   1
 Rotational constants (GHZ):           0.3550948           0.2991333           0.1802732
 General basis read from cards:  (5D, 7F)
 ======================================================================================================
                                       Pseudopotential Parameters
 ======================================================================================================
  Center     Atomic      Valence      Angular      Power
  Number     Number     Electrons     Momentum     of R      Exponent        Coefficient   SO-Coeffient
 ======================================================================================================
    1          6
                                   No pseudopotential on this center.
    2          6
                                   No pseudopotential on this center.
    3          6
                                   No pseudopotential on this center.
    4          6
                                   No pseudopotential on this center.
    5          6
                                   No pseudopotential on this center.
    6          6
                                   No pseudopotential on this center.
    7          1
                                   No pseudopotential on this center.
    8          1
                                   No pseudopotential on this center.
    9          1
                                   No pseudopotential on this center.
   10          6
                                   No pseudopotential on this center.
   11          8
                                   No pseudopotential on this center.
   12          6
                                   No pseudopotential on this center.
   13          1
                                   No pseudopotential on this center.
   14          1
                                   No pseudopotential on this center.
   15          1
                                   No pseudopotential on this center.
   16          6
                                   No pseudopotential on this center.
   17          1
                                   No pseudopotential on this center.
   18          1
                                   No pseudopotential on this center.
   19          1
                                   No pseudopotential on this center.
   20          6
                                   No pseudopotential on this center.
   21          6
                                   No pseudopotential on this center.
   22          6
                                   No pseudopotential on this center.
   23          6
                                   No pseudopotential on this center.
   24          6
                                   No pseudopotential on this center.
   25          1
                                   No pseudopotential on this center.
   26          6
                                   No pseudopotential on this center.
   27          1
                                   No pseudopotential on this center.
   28          1
                                   No pseudopotential on this center.
   29          5
                                   No pseudopotential on this center.
   30          7
                                   No pseudopotential on this center.
   31          6
                                   No pseudopotential on this center.
   32          1
                                   No pseudopotential on this center.
   33          1
                                   No pseudopotential on this center.
   34          1
                                   No pseudopotential on this center.
   35          6
                                   No pseudopotential on this center.
   36          1
                                   No pseudopotential on this center.
   37          1
                                   No pseudopotential on this center.
   38          1
                                   No pseudopotential on this center.
   39          6
                                   No pseudopotential on this center.
   40          1
                                   No pseudopotential on this center.
   41          1
                                   No pseudopotential on this center.
   42          1
                                   No pseudopotential on this center.
   43          6
                                   No pseudopotential on this center.
   44          1
                                   No pseudopotential on this center.
   45          1
                                   No pseudopotential on this center.
   46          1
                                   No pseudopotential on this center.
 ======================================================================================================
   652 basis functions,  1008 primitive gaussians,   674 cartesian basis functions
    79 alpha electrons       79 beta electrons
       nuclear repulsion energy      1836.3083186376 Hartrees.
 NAtoms=   46 NActive=   46 NUniq=   46 SFac= 1.00D+00 NAtFMM=   60 NAOKFM=F Big=F
 Integral buffers will be    131072 words long.
 Raffenetti 2 integral format.
 Two-electron integral symmetry is turned off.
 Nuclear repulsion after empirical dispersion term =     1836.2672245295 Hartrees.
 ------------------------------------------------------------------------------
 Polarizable Continuum Model (PCM)
 =================================
 Model                : PCM.
 Atomic radii         : UFF (Universal Force Field).
 Polarization charges : Total charges.
 Charge compensation  : None.
 Solution method      : On-the-fly selection.
 Cavity type          : Scaled VdW (van der Waals Surface) (Alpha=1.100).
 Cavity algorithm     : GePol (No added spheres)
                        Default sphere list used, NSphG=   46.
                        Lebedev-Laikov grids with approx.  5.0 points / Ang**2.
                        Smoothing algorithm: York/Karplus (Gamma=1.0000).
                        Polarization charges: spherical gaussians, with
                                              point-specific exponents (IZeta= 3).
                        Self-potential: point-specific (ISelfS= 7).
                        Self-field    : sphere-specific E.n sum rule (ISelfD= 2).
 Solvent              : Toluene, Eps=   2.374100 Eps(inf)=   2.238315
 ------------------------------------------------------------------------------
 One-electron integrals computed using PRISM.
   1 Symmetry operations used in ECPInt.
 ECPInt:  NShTT=   31878 NPrTT=  103753 LenC2=   29040 LenP2D=   65858.
 LDataN:  DoStor=T MaxTD1= 4 Len=   56
 Number of processors reduced to  70 by ecpmxn.
 NBasis=   652 RedAO= T EigKep=  1.37D-06  NBF=   652
 NBsUse=   645 1.00D-06 EigRej=  6.52D-07 NBFU=   645
 ExpMin= 3.15D-02 ExpMax= 8.59D+03 ExpMxC= 1.30D+03 IAcc=3 IRadAn=         5 AccDes= 0.00D+00
 Harris functional with IExCor= 4639 and IRadAn=       5 diagonalized for initial guess.
 HarFok:  IExCor= 4639 AccDes= 0.00D+00 IRadAn=         5 IDoV= 1 UseB2=F ITyADJ=14
 ICtDFT=  3500011 ScaDFX=  1.000000  1.000000  1.000000  1.000000
 FoFCou: FMM=F IPFlag=           0 FMFlag=      100000 FMFlg1=           0
         NFxFlg=           0 DoJE=T BraDBF=F KetDBF=T FulRan=T
         wScrn=  0.000000 ICntrl=       500 IOpCl=  0 I1Cent=   200000004 NGrid=           0
         NMat0=    1 NMatS0=      1 NMatT0=    0 NMatD0=    1 NMtDS0=    0 NMtDT0=    0
 Symmetry not used in FoFCou.
 Requested convergence on RMS density matrix=1.00D-08 within 300 cycles.
 Requested convergence on MAX density matrix=1.00D-06.
 Requested convergence on             energy=1.00D-06.
 No special actions if energy rises.
 Inv3:  Mode=1 IEnd=    26712768.
 Iteration    1 A*A^-1 deviation from unit magnitude is 4.00D-15 for   2967.
 Iteration    1 A*A^-1 deviation from orthogonality  is 2.06D-15 for   2966   1649.
 Iteration    1 A^-1*A deviation from unit magnitude is 4.22D-15 for   2967.
 Iteration    1 A^-1*A deviation from orthogonality  is 1.58D-15 for    886    241.
 Error on total polarization charges =  0.01108
 SCF Done:  E(RwB97XD) =  -893.262453462     A.U. after   16 cycles
            NFock= 16  Conv=0.65D-08     -V/T= 2.0044

 **********************************************************************

            Population analysis using the SCF Density.

 **********************************************************************

 Alpha  occ. eigenvalues --  -19.29239 -14.44117 -10.35034 -10.34582 -10.32644
 Alpha  occ. eigenvalues --  -10.31705 -10.30413 -10.29979 -10.29736 -10.29723
 Alpha  occ. eigenvalues --  -10.29179 -10.29002 -10.28499 -10.28423 -10.28402
 Alpha  occ. eigenvalues --  -10.28324 -10.27619 -10.27485 -10.27191 -10.24778
 Alpha  occ. eigenvalues --  -10.23819  -6.84367  -1.19707  -1.04624  -0.97122
 Alpha  occ. eigenvalues --   -0.96273  -0.91912  -0.86837  -0.85095  -0.83894
 Alpha  occ. eigenvalues --   -0.82442  -0.81084  -0.80131  -0.79086  -0.76731
 Alpha  occ. eigenvalues --   -0.75580  -0.73562  -0.72740  -0.68680  -0.67033
 Alpha  occ. eigenvalues --   -0.64670  -0.64285  -0.60268  -0.58265  -0.57046
 Alpha  occ. eigenvalues --   -0.56374  -0.56148  -0.55304  -0.54382  -0.53926
 Alpha  occ. eigenvalues --   -0.53348  -0.52912  -0.51404  -0.50365  -0.49505
 Alpha  occ. eigenvalues --   -0.48837  -0.48396  -0.48185  -0.47654  -0.47432
 Alpha  occ. eigenvalues --   -0.46781  -0.46707  -0.46061  -0.45595  -0.45564
 Alpha  occ. eigenvalues --   -0.45060  -0.44631  -0.44318  -0.43794  -0.42549
 Alpha  occ. eigenvalues --   -0.41483  -0.40625  -0.38971  -0.37616  -0.35610
 Alpha  occ. eigenvalues --   -0.32988  -0.32476  -0.30171  -0.27399
 Alpha virt. eigenvalues --    0.02581   0.03779   0.04515   0.04593   0.05286
 Alpha virt. eigenvalues --    0.05392   0.05732   0.05856   0.06072   0.06637
 Alpha virt. eigenvalues --    0.06748   0.07036   0.07272   0.07619   0.07710
 Alpha virt. eigenvalues --    0.08746   0.08804   0.08963   0.09305   0.09445
 Alpha virt. eigenvalues --    0.09663   0.09952   0.10064   0.11020   0.11418
 Alpha virt. eigenvalues --    0.11872   0.12426   0.12664   0.12901   0.13317
 Alpha virt. eigenvalues --    0.13852   0.13965   0.14279   0.14630   0.15351
 Alpha virt. eigenvalues --    0.15628   0.16155   0.16471   0.16624   0.16945
 Alpha virt. eigenvalues --    0.17357   0.17482   0.17714   0.17926   0.18043
 Alpha virt. eigenvalues --    0.18428   0.18590   0.18955   0.19089   0.19331
 Alpha virt. eigenvalues --    0.19471   0.19513   0.19636   0.19873   0.20263
 Alpha virt. eigenvalues --    0.20286   0.20586   0.20737   0.21013   0.21151
 Alpha virt. eigenvalues --    0.21302   0.21579   0.21901   0.22339   0.22411
 Alpha virt. eigenvalues --    0.22879   0.23066   0.23463   0.23704   0.23909
 Alpha virt. eigenvalues --    0.23999   0.24264   0.24465   0.24741   0.24948
 Alpha virt. eigenvalues --    0.25106   0.25271   0.25425   0.25523   0.25943
 Alpha virt. eigenvalues --    0.26255   0.26545   0.27129   0.27177   0.27266
 Alpha virt. eigenvalues --    0.27563   0.27743   0.27911   0.28212   0.28519
 Alpha virt. eigenvalues --    0.29131   0.29627   0.29962   0.30110   0.30199
 Alpha virt. eigenvalues --    0.30317   0.30735   0.30973   0.31619   0.31813
 Alpha virt. eigenvalues --    0.32394   0.32678   0.32990   0.33287   0.33513
 Alpha virt. eigenvalues --    0.34022   0.34542   0.34972   0.35199   0.35547
 Alpha virt. eigenvalues --    0.35870   0.36091   0.36203   0.36728   0.36884
 Alpha virt. eigenvalues --    0.37096   0.37306   0.37586   0.37652   0.37914
 Alpha virt. eigenvalues --    0.38617   0.38756   0.38906   0.39444   0.39733
 Alpha virt. eigenvalues --    0.40079   0.40191   0.40780   0.41515   0.41709
 Alpha virt. eigenvalues --    0.41994   0.42063   0.42348   0.42575   0.42799
 Alpha virt. eigenvalues --    0.43390   0.43756   0.44332   0.44560   0.44965
 Alpha virt. eigenvalues --    0.45582   0.46541   0.46819   0.47101   0.47254
 Alpha virt. eigenvalues --    0.47916   0.48731   0.49498   0.50114   0.50548
 Alpha virt. eigenvalues --    0.51904   0.52502   0.52766   0.53394   0.53929
 Alpha virt. eigenvalues --    0.55381   0.56741   0.57316   0.58397   0.59053
 Alpha virt. eigenvalues --    0.59294   0.60451   0.60828   0.61073   0.61725
 Alpha virt. eigenvalues --    0.62000   0.62543   0.63250   0.64279   0.65064
 Alpha virt. eigenvalues --    0.65343   0.65886   0.66171   0.66824   0.67165
 Alpha virt. eigenvalues --    0.67237   0.67528   0.67728   0.68192   0.68807
 Alpha virt. eigenvalues --    0.69447   0.69870   0.70674   0.70918   0.71524
 Alpha virt. eigenvalues --    0.72126   0.72801   0.72886   0.73339   0.74060
 Alpha virt. eigenvalues --    0.74198   0.74997   0.75143   0.75627   0.76381
 Alpha virt. eigenvalues --    0.76836   0.77248   0.77915   0.78238   0.78797
 Alpha virt. eigenvalues --    0.78899   0.79589   0.79731   0.80010   0.81023
 Alpha virt. eigenvalues --    0.81566   0.82153   0.82328   0.83064   0.83374
 Alpha virt. eigenvalues --    0.83708   0.83838   0.84358   0.84906   0.85325
 Alpha virt. eigenvalues --    0.85667   0.86062   0.87086   0.87255   0.87623
 Alpha virt. eigenvalues --    0.88212   0.88553   0.89292   0.89802   0.90819
 Alpha virt. eigenvalues --    0.91219   0.91484   0.91746   0.91950   0.93027
 Alpha virt. eigenvalues --    0.94007   0.95722   0.95962   0.96288   0.97204
 Alpha virt. eigenvalues --    0.98064   0.98567   0.99141   0.99945   1.00289
 Alpha virt. eigenvalues --    1.00757   1.01042   1.02521   1.03324   1.03808
 Alpha virt. eigenvalues --    1.04213   1.04266   1.05331   1.06686   1.07082
 Alpha virt. eigenvalues --    1.07557   1.08184   1.08781   1.10014   1.11035
 Alpha virt. eigenvalues --    1.11752   1.12768   1.14100   1.14451   1.15306
 Alpha virt. eigenvalues --    1.16717   1.17827   1.18849   1.19492   1.20039
 Alpha virt. eigenvalues --    1.20757   1.21171   1.21800   1.23707   1.24665
 Alpha virt. eigenvalues --    1.25050   1.26011   1.27422   1.28710   1.31035
 Alpha virt. eigenvalues --    1.31856   1.33441   1.35147   1.36229   1.36905
 Alpha virt. eigenvalues --    1.39302   1.39484   1.41119   1.42282   1.42589
 Alpha virt. eigenvalues --    1.44323   1.45352   1.46673   1.48054   1.50102
 Alpha virt. eigenvalues --    1.50698   1.52793   1.53040   1.54278   1.55089
 Alpha virt. eigenvalues --    1.56184   1.56677   1.57252   1.58368   1.58512
 Alpha virt. eigenvalues --    1.58961   1.59471   1.60520   1.60813   1.61988
 Alpha virt. eigenvalues --    1.62100   1.62682   1.63399   1.63532   1.64542
 Alpha virt. eigenvalues --    1.64915   1.65414   1.65967   1.65995   1.68016
 Alpha virt. eigenvalues --    1.68402   1.68882   1.69268   1.69713   1.70432
 Alpha virt. eigenvalues --    1.71098   1.71556   1.72909   1.73198   1.73656
 Alpha virt. eigenvalues --    1.74463   1.74675   1.75771   1.76432   1.76785
 Alpha virt. eigenvalues --    1.78228   1.78791   1.79478   1.79687   1.80613
 Alpha virt. eigenvalues --    1.81013   1.81350   1.82797   1.83629   1.84258
 Alpha virt. eigenvalues --    1.84786   1.85322   1.85660   1.85936   1.86493
 Alpha virt. eigenvalues --    1.87525   1.88096   1.89497   1.89641   1.90331
 Alpha virt. eigenvalues --    1.91961   1.92439   1.93244   1.93679   1.96094
 Alpha virt. eigenvalues --    1.96443   1.97416   1.97777   1.98316   1.99358
 Alpha virt. eigenvalues --    1.99740   2.01228   2.02412   2.03283   2.03450
 Alpha virt. eigenvalues --    2.04667   2.05038   2.05165   2.06770   2.07738
 Alpha virt. eigenvalues --    2.09379   2.09686   2.10424   2.10932   2.11938
 Alpha virt. eigenvalues --    2.12324   2.13093   2.14142   2.14867   2.16055
 Alpha virt. eigenvalues --    2.17109   2.18273   2.19535   2.21322   2.21769
 Alpha virt. eigenvalues --    2.22689   2.23055   2.23130   2.24962   2.25878
 Alpha virt. eigenvalues --    2.26239   2.26804   2.30482   2.31876   2.32575
 Alpha virt. eigenvalues --    2.33558   2.34423   2.36498   2.37166   2.37514
 Alpha virt. eigenvalues --    2.39947   2.40524   2.42605   2.43469   2.44483
 Alpha virt. eigenvalues --    2.45539   2.46986   2.48261   2.50025   2.51648
 Alpha virt. eigenvalues --    2.51964   2.54052   2.54853   2.56647   2.57146
 Alpha virt. eigenvalues --    2.57423   2.58587   2.59195   2.60121   2.61028
 Alpha virt. eigenvalues --    2.61459   2.62758   2.63460   2.63824   2.64719
 Alpha virt. eigenvalues --    2.65438   2.66287   2.66865   2.67681   2.68209
 Alpha virt. eigenvalues --    2.68746   2.69820   2.70465   2.71894   2.72536
 Alpha virt. eigenvalues --    2.73175   2.74557   2.74901   2.76670   2.77296
 Alpha virt. eigenvalues --    2.78520   2.79458   2.80267   2.80572   2.80963
 Alpha virt. eigenvalues --    2.81247   2.81969   2.82808   2.83708   2.83925
 Alpha virt. eigenvalues --    2.84501   2.85159   2.86888   2.87315   2.88308
 Alpha virt. eigenvalues --    2.88939   2.89502   2.90633   2.91181   2.92253
 Alpha virt. eigenvalues --    2.92565   2.92849   2.93643   2.94429   2.95259
 Alpha virt. eigenvalues --    2.96774   2.98165   2.99912   3.00796   3.01154
 Alpha virt. eigenvalues --    3.02417   3.05547   3.05991   3.07537   3.08378
 Alpha virt. eigenvalues --    3.09708   3.10836   3.13869   3.14764   3.15940
 Alpha virt. eigenvalues --    3.17071   3.18462   3.21287   3.23553   3.23895
 Alpha virt. eigenvalues --    3.26200   3.26869   3.29058   3.31375   3.34584
 Alpha virt. eigenvalues --    3.36556   3.37313   3.38455   3.40709   3.40983
 Alpha virt. eigenvalues --    3.45846   3.49884   3.53807   3.55845   3.55969
 Alpha virt. eigenvalues --    3.59453   3.61274   3.64841   3.66736   3.68016
 Alpha virt. eigenvalues --    3.68757   3.73691   3.76492   3.78207   3.82092
 Alpha virt. eigenvalues --    3.84478   3.87136   3.90036   3.90217   3.90976
 Alpha virt. eigenvalues --    3.91960   3.93157   3.93433   3.95010   3.95342
 Alpha virt. eigenvalues --    3.95690   3.96120   3.99272   4.00360   4.06694
 Alpha virt. eigenvalues --    4.12016   4.15291   4.16183   4.17622   4.25849
 Alpha virt. eigenvalues --    4.27661   4.33294   4.35699   4.38723   4.42077
 Alpha virt. eigenvalues --    4.52007   4.56108   4.95483   4.96731   4.99959
 Alpha virt. eigenvalues --    5.14245   5.28606   5.63636   6.05233  14.82446
 Alpha virt. eigenvalues --   23.70932  23.77577  23.98477  24.08845  24.09207
 Alpha virt. eigenvalues --   24.10383  24.11205  24.11861  24.12112  24.12614
 Alpha virt. eigenvalues --   24.14404  24.15769  24.18763  24.21333  24.22429
 Alpha virt. eigenvalues --   24.22836  24.25024  24.33064  24.34401  35.75336
 Alpha virt. eigenvalues --   50.15514
          Condensed to atoms (all electrons):
               1          2          3          4          5          6
     1  C    8.154989  -1.410961  -0.364041   0.448758  -0.925106   0.615595
     2  C   -1.410961   8.709947  -0.245833  -1.459132   1.358381  -1.328824
     3  C   -0.364041  -0.245833   7.892237   0.863500  -2.241490   0.493655
     4  C    0.448758  -1.459132   0.863500   7.372143  -1.080554   0.422824
     5  C   -0.925106   1.358381  -2.241490  -1.080554  10.666729   0.235780
     6  C    0.615595  -1.328824   0.493655   0.422824   0.235780   7.254611
     7  H   -0.211646   0.514805  -0.035500  -0.010825   0.075088  -0.037290
     8  H    0.020328  -0.039868   0.404483  -0.072699  -0.005824   0.020364
     9  H    0.000701  -0.005934  -0.077720   0.384957  -0.038581  -0.005684
    10  C   -0.378479   0.076378  -0.240430  -0.760444   0.279896  -0.262273
    11  O   -0.178578   0.093772   0.002147  -0.038016  -0.168595   0.089455
    12  C    0.008144  -0.057925  -0.007973   0.135908  -0.503708  -0.284477
    13  H   -0.000734   0.000041  -0.016794  -0.036514   0.111700   0.001000
    14  H   -0.009369   0.003719   0.030891   0.062601  -0.150550  -0.006249
    15  H    0.002058  -0.004241   0.006512   0.000407  -0.000174   0.007378
    16  C   -0.023614   0.027384   0.036784   0.020492   0.130769   0.042276
    17  H    0.001890   0.003138  -0.024717  -0.049578   0.007671  -0.008912
    18  H   -0.002747   0.004462   0.004089   0.024951   0.042050   0.019587
    19  H   -0.000092  -0.004411   0.000165  -0.002088  -0.063700  -0.007880
    20  C   -0.159108   0.174239   0.113873   0.242497  -1.722617  -0.768746
    21  C   -0.042682  -0.013328   0.155172  -0.087420  -0.336547  -0.506947
    22  C    0.325828  -0.000328  -0.133317  -0.174661  -0.038471  -0.186818
    23  C   -0.230476  -0.184589   0.074407   0.174862  -0.336922   0.171197
    24  C    0.048230   0.000183  -0.027673  -0.053598   0.215066   0.139542
    25  H    0.000143  -0.000548   0.003328   0.015080  -0.002051   0.004354
    26  C   -0.178177  -0.012517   0.022321  -0.065772   0.259592  -0.122592
    27  H    0.000554   0.000155  -0.000070  -0.000278  -0.000636   0.002395
    28  H   -0.001210   0.000269  -0.000198  -0.000915  -0.002557   0.000033
    29  B    0.381183  -0.283914   0.120756   0.092419  -0.102991   0.074257
    30  N    0.029963   0.031670  -0.007093  -0.014051  -0.039985  -0.056706
    31  C   -0.280928   0.135588   0.012969  -0.009033   0.017197  -0.030017
    32  H   -0.033334   0.026034  -0.005509  -0.003840   0.012134  -0.007285
    33  H    0.049587  -0.027787  -0.007085  -0.000283   0.005082   0.002669
    34  H    0.008336  -0.013281   0.001193   0.006399  -0.008036   0.007249
    35  C   -0.068632   0.011399  -0.003857   0.017048   0.009084   0.020001
    36  H   -0.026554   0.006841   0.001883  -0.002516   0.012977   0.015640
    37  H   -0.007120   0.034611   0.001365  -0.003502   0.005840  -0.014473
    38  H    0.024573   0.073775  -0.005064  -0.013404  -0.016154  -0.097129
    39  C    0.014744  -0.002280  -0.003544   0.004924  -0.000430   0.066471
    40  H   -0.000648  -0.000958   0.000120   0.000633  -0.000681  -0.002681
    41  H   -0.000901   0.003846  -0.001277  -0.000561   0.002208   0.008661
    42  H   -0.010616   0.014180   0.001665  -0.009871   0.005254  -0.024405
    43  C   -0.019510  -0.006649   0.000458   0.002865  -0.016105   0.009845
    44  H   -0.002129  -0.002854   0.000297   0.000606  -0.000273   0.002177
    45  H    0.001530   0.000574   0.000050  -0.000304   0.000331  -0.003724
    46  H   -0.002815  -0.001061   0.000087   0.000373   0.000454   0.002705
               7          8          9         10         11         12
     1  C   -0.211646   0.020328   0.000701  -0.378479  -0.178578   0.008144
     2  C    0.514805  -0.039868  -0.005934   0.076378   0.093772  -0.057925
     3  C   -0.035500   0.404483  -0.077720  -0.240430   0.002147  -0.007973
     4  C   -0.010825  -0.072699   0.384957  -0.760444  -0.038016   0.135908
     5  C    0.075088  -0.005824  -0.038581   0.279896  -0.168595  -0.503708
     6  C   -0.037290   0.020364  -0.005684  -0.262273   0.089455  -0.284477
     7  H    0.516921  -0.009471   0.002042   0.012752  -0.001247   0.000573
     8  H   -0.009471   0.460322  -0.011851  -0.007992   0.001547  -0.002662
     9  H    0.002042  -0.011851   0.509431   0.020784  -0.002904   0.029094
    10  C    0.012752  -0.007992   0.020784   9.321893   0.002725  -0.410976
    11  O   -0.001247   0.001547  -0.002904   0.002725   8.347160  -0.022057
    12  C    0.000573  -0.002662   0.029094  -0.410976  -0.022057   7.579387
    13  H   -0.000022  -0.000214   0.002971   0.006770  -0.000326   0.376245
    14  H   -0.000227   0.000205   0.005604   0.007922   0.000263   0.371058
    15  H   -0.000301   0.000322  -0.006602  -0.006595  -0.000998   0.422999
    16  C    0.000530   0.001432  -0.007776  -0.502170   0.006673  -0.601604
    17  H   -0.000027  -0.000766   0.000531   0.008248  -0.005029  -0.040569
    18  H    0.000145   0.000027  -0.001073   0.019909  -0.000664  -0.031082
    19  H    0.000318  -0.000088   0.001483   0.029067   0.010960   0.076728
    20  C    0.003656  -0.001601   0.009141   0.300819  -0.126566  -0.077616
    21  C    0.000184   0.002311  -0.004724  -0.139304   0.208365  -0.322878
    22  C    0.001747   0.000648   0.021422  -0.841084   0.026125  -0.132614
    23  C   -0.004466   0.000613   0.003018  -0.399407  -0.215494   0.067401
    24  C   -0.000333   0.000256   0.002804  -0.135157   0.052902  -0.246085
    25  H    0.000081   0.000001   0.000596  -0.008037  -0.003528   0.029783
    26  C   -0.001577   0.000006  -0.004469   0.252126   0.071189   0.079217
    27  H   -0.000005   0.000002  -0.000024   0.002018   0.001647  -0.007792
    28  H    0.000012  -0.000002  -0.000020   0.009129  -0.002339   0.004301
    29  B   -0.040956   0.003094   0.000035  -0.033492  -0.040855   0.000880
    30  N    0.001254  -0.000067   0.000245   0.035098   0.027329   0.005283
    31  C    0.007196  -0.000376   0.000008  -0.001331   0.010869  -0.002719
    32  H    0.002012  -0.000456   0.000080   0.003231   0.001668   0.000216
    33  H    0.000517  -0.000235   0.000078  -0.001261   0.000720  -0.000298
    34  H   -0.002284   0.000130   0.000119  -0.000570   0.001438  -0.000025
    35  C    0.003024  -0.000978   0.000536  -0.012832  -0.032036  -0.001613
    36  H    0.001355  -0.000377  -0.000091  -0.000047  -0.004533  -0.000764
    37  H   -0.000445  -0.000042  -0.000040   0.000583   0.000725  -0.000034
    38  H    0.006189  -0.000000   0.000102   0.016181   0.005620   0.003557
    39  C   -0.000138  -0.000019   0.000221  -0.028014  -0.040289  -0.003032
    40  H   -0.000045  -0.000002   0.000002   0.003373   0.002875   0.000437
    41  H    0.000225  -0.000029   0.000041  -0.004243  -0.004674  -0.000699
    42  H   -0.000001   0.000052  -0.000304  -0.028771   0.014820  -0.006852
    43  C    0.000033  -0.000026   0.000178   0.028409  -0.016926   0.009634
    44  H   -0.000049   0.000007  -0.000001   0.001401  -0.002448   0.000605
    45  H   -0.000003  -0.000001   0.000002   0.000909   0.000892  -0.000367
    46  H   -0.000018   0.000000   0.000005  -0.001799   0.000035  -0.000296
              13         14         15         16         17         18
     1  C   -0.000734  -0.009369   0.002058  -0.023614   0.001890  -0.002747
     2  C    0.000041   0.003719  -0.004241   0.027384   0.003138   0.004462
     3  C   -0.016794   0.030891   0.006512   0.036784  -0.024717   0.004089
     4  C   -0.036514   0.062601   0.000407   0.020492  -0.049578   0.024951
     5  C    0.111700  -0.150550  -0.000174   0.130769   0.007671   0.042050
     6  C    0.001000  -0.006249   0.007378   0.042276  -0.008912   0.019587
     7  H   -0.000022  -0.000227  -0.000301   0.000530  -0.000027   0.000145
     8  H   -0.000214   0.000205   0.000322   0.001432  -0.000766   0.000027
     9  H    0.002971   0.005604  -0.006602  -0.007776   0.000531  -0.001073
    10  C    0.006770   0.007922  -0.006595  -0.502170   0.008248   0.019909
    11  O   -0.000326   0.000263  -0.000998   0.006673  -0.005029  -0.000664
    12  C    0.376245   0.371058   0.422999  -0.601604  -0.040569  -0.031082
    13  H    0.535190  -0.040942  -0.018424  -0.019720   0.006113  -0.009381
    14  H   -0.040942   0.537767  -0.017403  -0.020205  -0.008917   0.006003
    15  H   -0.018424  -0.017403   0.455873   0.005759   0.000415   0.000239
    16  C   -0.019720  -0.020205   0.005759   6.500714   0.359507   0.348712
    17  H    0.006113  -0.008917   0.000415   0.359507   0.517097  -0.026505
    18  H   -0.009381   0.006003   0.000239   0.348712  -0.026505   0.510865
    19  H    0.001630   0.000755  -0.004661   0.360682  -0.027632  -0.028786
    20  C   -0.118485   0.120813  -0.014512   0.109661   0.050107   0.006313
    21  C   -0.021953   0.013645   0.006105   0.019951   0.011760   0.007496
    22  C    0.041168  -0.059444  -0.025791  -0.140720   0.043050  -0.052828
    23  C   -0.012060  -0.003928  -0.004002  -0.079441  -0.003935   0.005072
    24  C    0.030065  -0.014544   0.000080   0.171220   0.006197  -0.026618
    25  H    0.004622   0.001823  -0.007182  -0.014891  -0.000339   0.000531
    26  C    0.010097   0.001571   0.002738   0.037425   0.002397  -0.007957
    27  H    0.000558  -0.000042   0.000094   0.002816   0.000005  -0.000471
    28  H   -0.000190  -0.000013  -0.000049  -0.002303   0.000074  -0.000133
    29  B   -0.000330   0.000357   0.000028   0.010312  -0.001204  -0.000508
    30  N   -0.000126   0.000497  -0.000364   0.004462  -0.000667   0.000309
    31  C    0.000101  -0.000214  -0.000005   0.002378   0.000453   0.000007
    32  H    0.000016  -0.000021  -0.000018  -0.000177   0.000019  -0.000014
    33  H    0.000009  -0.000004  -0.000007   0.000448  -0.000001   0.000005
    34  H    0.000009  -0.000029  -0.000010   0.000752  -0.000027  -0.000008
    35  C   -0.000066   0.000150  -0.000204  -0.008689  -0.000186   0.000652
    36  H    0.000009   0.000031   0.000078  -0.000113   0.000026   0.000015
    37  H    0.000004   0.000008  -0.000022  -0.000736   0.000002   0.000073
    38  H   -0.000165   0.000074  -0.000156  -0.002318   0.000051  -0.000009
    39  C   -0.000566   0.000158   0.000160  -0.001011  -0.000484   0.001322
    40  H   -0.000002  -0.000019   0.000000  -0.001336  -0.000057   0.000058
    41  H   -0.000045   0.000038   0.000008   0.002060  -0.000052   0.000171
    42  H    0.000580   0.000045   0.000121   0.013220   0.000065  -0.000289
    43  C    0.000068  -0.000180  -0.000010  -0.009824   0.000042  -0.000504
    44  H    0.000007  -0.000018   0.000001  -0.001019   0.000018  -0.000064
    45  H   -0.000016   0.000010   0.000004   0.000207  -0.000019   0.000100
    46  H    0.000065  -0.000014   0.000005   0.000455  -0.000002  -0.000035
              19         20         21         22         23         24
     1  C   -0.000092  -0.159108  -0.042682   0.325828  -0.230476   0.048230
     2  C   -0.004411   0.174239  -0.013328  -0.000328  -0.184589   0.000183
     3  C    0.000165   0.113873   0.155172  -0.133317   0.074407  -0.027673
     4  C   -0.002088   0.242497  -0.087420  -0.174661   0.174862  -0.053598
     5  C   -0.063700  -1.722617  -0.336547  -0.038471  -0.336922   0.215066
     6  C   -0.007880  -0.768746  -0.506947  -0.186818   0.171197   0.139542
     7  H    0.000318   0.003656   0.000184   0.001747  -0.004466  -0.000333
     8  H   -0.000088  -0.001601   0.002311   0.000648   0.000613   0.000256
     9  H    0.001483   0.009141  -0.004724   0.021422   0.003018   0.002804
    10  C    0.029067   0.300819  -0.139304  -0.841084  -0.399407  -0.135157
    11  O    0.010960  -0.126566   0.208365   0.026125  -0.215494   0.052902
    12  C    0.076728  -0.077616  -0.322878  -0.132614   0.067401  -0.246085
    13  H    0.001630  -0.118485  -0.021953   0.041168  -0.012060   0.030065
    14  H    0.000755   0.120813   0.013645  -0.059444  -0.003928  -0.014544
    15  H   -0.004661  -0.014512   0.006105  -0.025791  -0.004002   0.000080
    16  C    0.360682   0.109661   0.019951  -0.140720  -0.079441   0.171220
    17  H   -0.027632   0.050107   0.011760   0.043050  -0.003935   0.006197
    18  H   -0.028786   0.006313   0.007496  -0.052828   0.005072  -0.026618
    19  H    0.519086  -0.037651  -0.000270   0.006491   0.009418  -0.016741
    20  C   -0.037651  13.637518   0.163004  -4.406852  -3.021809  -1.508146
    21  C   -0.000270   0.163004   6.782577   0.281611   0.987766  -0.082283
    22  C    0.006491  -4.406852   0.281611  11.332501   2.502365   0.802216
    23  C    0.009418  -3.021809   0.987766   2.502365  13.248970  -2.023439
    24  C   -0.016741  -1.508146  -0.082283   0.802216  -2.023439   8.570779
    25  H    0.002126  -0.073023   0.014749   0.457548   0.056259  -0.076334
    26  C   -0.003180   2.963687  -1.064374  -3.791787  -4.616698   0.683538
    27  H   -0.000421   0.005648   0.014032  -0.081629  -0.000461   0.400155
    28  H    0.000359   0.014337   0.015865  -0.013012  -0.016604  -0.072465
    29  B   -0.000346  -0.047799  -0.017727  -0.009144   0.021675   0.001190
    30  N    0.000600  -0.037451  -0.149155   0.115288  -0.265884   0.017923
    31  C   -0.001392   0.009862   0.004944  -0.000043   0.008249   0.000697
    32  H    0.000566   0.000021  -0.001698  -0.000241   0.001242  -0.000138
    33  H   -0.000188   0.000425   0.001272  -0.000048   0.000316   0.000020
    34  H    0.000174  -0.000279  -0.001875  -0.000342   0.002421   0.000029
    35  C   -0.000659  -0.002590  -0.035815   0.013166   0.012179   0.001736
    36  H   -0.000519   0.001358  -0.012565  -0.005137   0.013026   0.000934
    37  H   -0.000164   0.002231   0.000711  -0.000303   0.004396   0.000311
    38  H   -0.000075   0.013054   0.063471   0.033768  -0.079215  -0.023971
    39  C   -0.005497  -0.094721  -0.079600   0.080253  -0.002762  -0.012842
    40  H    0.000261  -0.000523   0.017808   0.006541   0.007007  -0.008858
    41  H   -0.001115   0.001472  -0.025770   0.000283   0.028265   0.009207
    42  H   -0.007238   0.035261  -0.005065  -0.019079  -0.022957   0.026575
    43  C    0.004034  -0.112932   0.118696   0.021211   0.134064  -0.276827
    44  H    0.000410  -0.009080   0.004717  -0.001811   0.013260  -0.011448
    45  H   -0.000297   0.019794  -0.016495  -0.004381  -0.018953   0.023729
    46  H    0.000190  -0.017204   0.018820  -0.001612  -0.016221  -0.002834
              25         26         27         28         29         30
     1  C    0.000143  -0.178177   0.000554  -0.001210   0.381183   0.029963
     2  C   -0.000548  -0.012517   0.000155   0.000269  -0.283914   0.031670
     3  C    0.003328   0.022321  -0.000070  -0.000198   0.120756  -0.007093
     4  C    0.015080  -0.065772  -0.000278  -0.000915   0.092419  -0.014051
     5  C   -0.002051   0.259592  -0.000636  -0.002557  -0.102991  -0.039985
     6  C    0.004354  -0.122592   0.002395   0.000033   0.074257  -0.056706
     7  H    0.000081  -0.001577  -0.000005   0.000012  -0.040956   0.001254
     8  H    0.000001   0.000006   0.000002  -0.000002   0.003094  -0.000067
     9  H    0.000596  -0.004469  -0.000024  -0.000020   0.000035   0.000245
    10  C   -0.008037   0.252126   0.002018   0.009129  -0.033492   0.035098
    11  O   -0.003528   0.071189   0.001647  -0.002339  -0.040855   0.027329
    12  C    0.029783   0.079217  -0.007792   0.004301   0.000880   0.005283
    13  H    0.004622   0.010097   0.000558  -0.000190  -0.000330  -0.000126
    14  H    0.001823   0.001571  -0.000042  -0.000013   0.000357   0.000497
    15  H   -0.007182   0.002738   0.000094  -0.000049   0.000028  -0.000364
    16  C   -0.014891   0.037425   0.002816  -0.002303   0.010312   0.004462
    17  H   -0.000339   0.002397   0.000005   0.000074  -0.001204  -0.000667
    18  H    0.000531  -0.007957  -0.000471  -0.000133  -0.000508   0.000309
    19  H    0.002126  -0.003180  -0.000421   0.000359  -0.000346   0.000600
    20  C   -0.073023   2.963687   0.005648   0.014337  -0.047799  -0.037451
    21  C    0.014749  -1.064374   0.014032   0.015865  -0.017727  -0.149155
    22  C    0.457548  -3.791787  -0.081629  -0.013012  -0.009144   0.115288
    23  C    0.056259  -4.616698  -0.000461  -0.016604   0.021675  -0.265884
    24  C   -0.076334   0.683538   0.400155  -0.072465   0.001190   0.017923
    25  H    0.515353  -0.072067  -0.013871   0.001708   0.000055   0.002623
    26  C   -0.072067  12.747061  -0.019590   0.430435   0.003450  -0.532926
    27  H   -0.013871  -0.019590   0.465151  -0.008304   0.000119  -0.005288
    28  H    0.001708   0.430435  -0.008304   0.490432  -0.000635  -0.022954
    29  B    0.000055   0.003450   0.000119  -0.000635   4.775049  -0.002720
    30  N    0.002623  -0.532926  -0.005288  -0.022954  -0.002720   7.411913
    31  C   -0.000088   0.002266   0.000019  -0.000121   0.342338  -0.004741
    32  H   -0.000004   0.000168  -0.000000   0.000019  -0.106457   0.000275
    33  H   -0.000005   0.000429  -0.000000  -0.000013  -0.120720   0.000294
    34  H   -0.000004   0.000243   0.000002  -0.000007  -0.080281  -0.000758
    35  C   -0.000151  -0.026495  -0.000057  -0.001383   0.300133  -0.002734
    36  H   -0.000049   0.013929  -0.000032   0.000108  -0.105687  -0.002661
    37  H   -0.000058   0.000478   0.000035  -0.000247  -0.160176  -0.001713
    38  H    0.001034  -0.093673  -0.000340   0.003111  -0.173264   0.049077
    39  C    0.001953  -0.301897  -0.000417  -0.001456   0.003422   0.274868
    40  H    0.000172  -0.031814  -0.000496   0.000868  -0.002569  -0.058621
    41  H    0.000063   0.026691  -0.000045   0.000531   0.004388  -0.068882
    42  H   -0.001383   0.046611   0.000830  -0.000797  -0.029985  -0.077842
    43  C   -0.000300  -0.324777  -0.000951   0.006221   0.014597   0.284317
    44  H   -0.000042   0.025337   0.000023   0.002944   0.002483  -0.077686
    45  H   -0.000216   0.038287   0.000528   0.002923  -0.001326  -0.058609
    46  H   -0.000170  -0.000540   0.000017  -0.013281   0.003291  -0.057549
              31         32         33         34         35         36
     1  C   -0.280928  -0.033334   0.049587   0.008336  -0.068632  -0.026554
     2  C    0.135588   0.026034  -0.027787  -0.013281   0.011399   0.006841
     3  C    0.012969  -0.005509  -0.007085   0.001193  -0.003857   0.001883
     4  C   -0.009033  -0.003840  -0.000283   0.006399   0.017048  -0.002516
     5  C    0.017197   0.012134   0.005082  -0.008036   0.009084   0.012977
     6  C   -0.030017  -0.007285   0.002669   0.007249   0.020001   0.015640
     7  H    0.007196   0.002012   0.000517  -0.002284   0.003024   0.001355
     8  H   -0.000376  -0.000456  -0.000235   0.000130  -0.000978  -0.000377
     9  H    0.000008   0.000080   0.000078   0.000119   0.000536  -0.000091
    10  C   -0.001331   0.003231  -0.001261  -0.000570  -0.012832  -0.000047
    11  O    0.010869   0.001668   0.000720   0.001438  -0.032036  -0.004533
    12  C   -0.002719   0.000216  -0.000298  -0.000025  -0.001613  -0.000764
    13  H    0.000101   0.000016   0.000009   0.000009  -0.000066   0.000009
    14  H   -0.000214  -0.000021  -0.000004  -0.000029   0.000150   0.000031
    15  H   -0.000005  -0.000018  -0.000007  -0.000010  -0.000204   0.000078
    16  C    0.002378  -0.000177   0.000448   0.000752  -0.008689  -0.000113
    17  H    0.000453   0.000019  -0.000001  -0.000027  -0.000186   0.000026
    18  H    0.000007  -0.000014   0.000005  -0.000008   0.000652   0.000015
    19  H   -0.001392   0.000566  -0.000188   0.000174  -0.000659  -0.000519
    20  C    0.009862   0.000021   0.000425  -0.000279  -0.002590   0.001358
    21  C    0.004944  -0.001698   0.001272  -0.001875  -0.035815  -0.012565
    22  C   -0.000043  -0.000241  -0.000048  -0.000342   0.013166  -0.005137
    23  C    0.008249   0.001242   0.000316   0.002421   0.012179   0.013026
    24  C    0.000697  -0.000138   0.000020   0.000029   0.001736   0.000934
    25  H   -0.000088  -0.000004  -0.000005  -0.000004  -0.000151  -0.000049
    26  C    0.002266   0.000168   0.000429   0.000243  -0.026495   0.013929
    27  H    0.000019  -0.000000  -0.000000   0.000002  -0.000057  -0.000032
    28  H   -0.000121   0.000019  -0.000013  -0.000007  -0.001383   0.000108
    29  B    0.342338  -0.106457  -0.120720  -0.080281   0.300133  -0.105687
    30  N   -0.004741   0.000275   0.000294  -0.000758  -0.002734  -0.002661
    31  C    5.302457   0.417604   0.423897   0.400300  -0.054097   0.003649
    32  H    0.417604   0.541568  -0.013175  -0.020948   0.004977   0.002408
    33  H    0.423897  -0.013175   0.542599  -0.013897   0.007224   0.002666
    34  H    0.400300  -0.020948  -0.013897   0.578783   0.002649  -0.001164
    35  C   -0.054097   0.004977   0.007224   0.002649   5.392024   0.404443
    36  H    0.003649   0.002408   0.002666  -0.001164   0.404443   0.540418
    37  H    0.008583   0.008058   0.002159  -0.002614   0.466139  -0.001536
    38  H   -0.024167  -0.014544  -0.000085  -0.011733   0.304551  -0.042407
    39  C    0.002378  -0.000028  -0.000203  -0.000845  -0.015261  -0.000641
    40  H    0.000045   0.000353   0.000011  -0.000082   0.001649   0.000081
    41  H    0.001746  -0.001638   0.000562   0.000262   0.003071   0.000226
    42  H    0.006338  -0.001604   0.001288   0.000618   0.002923   0.002611
    43  C    0.001012   0.000706  -0.000033   0.000154   0.023633  -0.002262
    44  H   -0.000146   0.000070  -0.000113   0.000045   0.002568  -0.000400
    45  H    0.000068   0.000031   0.000038  -0.000005  -0.000565   0.000224
    46  H    0.000126   0.000037  -0.000003   0.000033   0.003069  -0.000517
              37         38         39         40         41         42
     1  C   -0.007120   0.024573   0.014744  -0.000648  -0.000901  -0.010616
     2  C    0.034611   0.073775  -0.002280  -0.000958   0.003846   0.014180
     3  C    0.001365  -0.005064  -0.003544   0.000120  -0.001277   0.001665
     4  C   -0.003502  -0.013404   0.004924   0.000633  -0.000561  -0.009871
     5  C    0.005840  -0.016154  -0.000430  -0.000681   0.002208   0.005254
     6  C   -0.014473  -0.097129   0.066471  -0.002681   0.008661  -0.024405
     7  H   -0.000445   0.006189  -0.000138  -0.000045   0.000225  -0.000001
     8  H   -0.000042  -0.000000  -0.000019  -0.000002  -0.000029   0.000052
     9  H   -0.000040   0.000102   0.000221   0.000002   0.000041  -0.000304
    10  C    0.000583   0.016181  -0.028014   0.003373  -0.004243  -0.028771
    11  O    0.000725   0.005620  -0.040289   0.002875  -0.004674   0.014820
    12  C   -0.000034   0.003557  -0.003032   0.000437  -0.000699  -0.006852
    13  H    0.000004  -0.000165  -0.000566  -0.000002  -0.000045   0.000580
    14  H    0.000008   0.000074   0.000158  -0.000019   0.000038   0.000045
    15  H   -0.000022  -0.000156   0.000160   0.000000   0.000008   0.000121
    16  C   -0.000736  -0.002318  -0.001011  -0.001336   0.002060   0.013220
    17  H    0.000002   0.000051  -0.000484  -0.000057  -0.000052   0.000065
    18  H    0.000073  -0.000009   0.001322   0.000058   0.000171  -0.000289
    19  H   -0.000164  -0.000075  -0.005497   0.000261  -0.001115  -0.007238
    20  C    0.002231   0.013054  -0.094721  -0.000523   0.001472   0.035261
    21  C    0.000711   0.063471  -0.079600   0.017808  -0.025770  -0.005065
    22  C   -0.000303   0.033768   0.080253   0.006541   0.000283  -0.019079
    23  C    0.004396  -0.079215  -0.002762   0.007007   0.028265  -0.022957
    24  C    0.000311  -0.023971  -0.012842  -0.008858   0.009207   0.026575
    25  H   -0.000058   0.001034   0.001953   0.000172   0.000063  -0.001383
    26  C    0.000478  -0.093673  -0.301897  -0.031814   0.026691   0.046611
    27  H    0.000035  -0.000340  -0.000417  -0.000496  -0.000045   0.000830
    28  H   -0.000247   0.003111  -0.001456   0.000868   0.000531  -0.000797
    29  B   -0.160176  -0.173264   0.003422  -0.002569   0.004388  -0.029985
    30  N   -0.001713   0.049077   0.274868  -0.058621  -0.068882  -0.077842
    31  C    0.008583  -0.024167   0.002378   0.000045   0.001746   0.006338
    32  H    0.008058  -0.014544  -0.000028   0.000353  -0.001638  -0.001604
    33  H    0.002159  -0.000085  -0.000203   0.000011   0.000562   0.001288
    34  H   -0.002614  -0.011733  -0.000845  -0.000082   0.000262   0.000618
    35  C    0.466139   0.304551  -0.015261   0.001649   0.003071   0.002923
    36  H   -0.001536  -0.042407  -0.000641   0.000081   0.000226   0.002611
    37  H    0.555893  -0.023018  -0.011968   0.000356  -0.003063   0.003275
    38  H   -0.023018   0.733649   0.025184   0.004260  -0.007871  -0.004784
    39  C   -0.011968   0.025184   5.540879   0.430221   0.381087   0.397789
    40  H    0.000356   0.004260   0.430221   0.546217  -0.051892  -0.032146
    41  H   -0.003063  -0.007871   0.381087  -0.051892   0.553511  -0.003922
    42  H    0.003275  -0.004784   0.397789  -0.032146  -0.003922   0.532698
    43  C    0.003142  -0.039438  -0.194834  -0.018182  -0.020266  -0.001610
    44  H   -0.000826  -0.002507  -0.008437  -0.005813   0.003863   0.003800
    45  H    0.000777   0.000596  -0.009873   0.013801  -0.001191  -0.000729
    46  H    0.000515  -0.011330   0.008574   0.000896  -0.002961  -0.003575
              43         44         45         46
     1  C   -0.019510  -0.002129   0.001530  -0.002815
     2  C   -0.006649  -0.002854   0.000574  -0.001061
     3  C    0.000458   0.000297   0.000050   0.000087
     4  C    0.002865   0.000606  -0.000304   0.000373
     5  C   -0.016105  -0.000273   0.000331   0.000454
     6  C    0.009845   0.002177  -0.003724   0.002705
     7  H    0.000033  -0.000049  -0.000003  -0.000018
     8  H   -0.000026   0.000007  -0.000001   0.000000
     9  H    0.000178  -0.000001   0.000002   0.000005
    10  C    0.028409   0.001401   0.000909  -0.001799
    11  O   -0.016926  -0.002448   0.000892   0.000035
    12  C    0.009634   0.000605  -0.000367  -0.000296
    13  H    0.000068   0.000007  -0.000016   0.000065
    14  H   -0.000180  -0.000018   0.000010  -0.000014
    15  H   -0.000010   0.000001   0.000004   0.000005
    16  C   -0.009824  -0.001019   0.000207   0.000455
    17  H    0.000042   0.000018  -0.000019  -0.000002
    18  H   -0.000504  -0.000064   0.000100  -0.000035
    19  H    0.004034   0.000410  -0.000297   0.000190
    20  C   -0.112932  -0.009080   0.019794  -0.017204
    21  C    0.118696   0.004717  -0.016495   0.018820
    22  C    0.021211  -0.001811  -0.004381  -0.001612
    23  C    0.134064   0.013260  -0.018953  -0.016221
    24  C   -0.276827  -0.011448   0.023729  -0.002834
    25  H   -0.000300  -0.000042  -0.000216  -0.000170
    26  C   -0.324777   0.025337   0.038287  -0.000540
    27  H   -0.000951   0.000023   0.000528   0.000017
    28  H    0.006221   0.002944   0.002923  -0.013281
    29  B    0.014597   0.002483  -0.001326   0.003291
    30  N    0.284317  -0.077686  -0.058609  -0.057549
    31  C    0.001012  -0.000146   0.000068   0.000126
    32  H    0.000706   0.000070   0.000031   0.000037
    33  H   -0.000033  -0.000113   0.000038  -0.000003
    34  H    0.000154   0.000045  -0.000005   0.000033
    35  C    0.023633   0.002568  -0.000565   0.003069
    36  H   -0.002262  -0.000400   0.000224  -0.000517
    37  H    0.003142  -0.000826   0.000777   0.000515
    38  H   -0.039438  -0.002507   0.000596  -0.011330
    39  C   -0.194834  -0.008437  -0.009873   0.008574
    40  H   -0.018182  -0.005813   0.013801   0.000896
    41  H   -0.020266   0.003863  -0.001191  -0.002961
    42  H   -0.001610   0.003800  -0.000729  -0.003575
    43  C    5.556874   0.422947   0.371012   0.445155
    44  H    0.422947   0.524209  -0.057826  -0.001196
    45  H    0.371012  -0.057826   0.597411  -0.050311
    46  H    0.445155  -0.001196  -0.050311   0.523352
 Mulliken charges:
               1
     1  C    0.433076
     2  C   -0.198171
     3  C   -0.795221
     4  C   -0.344386
     5  C    0.349457
     6  C    0.033392
     7  H    0.206214
     8  H    0.239494
     9  H    0.171565
    10  C   -0.234911
    11  O   -0.073822
    12  C   -0.434733
    13  H    0.168039
    14  H    0.166323
    15  H    0.200349
    16  C   -0.779413
    17  H    0.180746
    18  H    0.186516
    19  H    0.189585
    20  C    0.360522
    21  C    0.053447
    22  C    0.008265
    23  C    0.012271
    24  C   -0.585251
    25  H    0.160351
    26  C   -0.448410
    27  H    0.244417
    28  H    0.177529
    29  B    0.207575
    30  N    0.253947
    31  C   -0.713928
    32  H    0.187612
    33  H    0.143128
    34  H    0.147767
    35  C   -0.739130
    36  H    0.185632
    37  H    0.131831
    38  H    0.324943
    39  C   -0.413517
    40  H    0.179382
    41  H    0.168612
    42  H    0.183206
    43  C   -0.397161
    44  H    0.174390
    45  H    0.151383
    46  H    0.177083
 Sum of Mulliken charges =  -0.00000
 Mulliken charges with hydrogens summed into heavy atoms:
               1
     1  C    0.433076
     2  C    0.008044
     3  C   -0.555727
     4  C   -0.172820
     5  C    0.349457
     6  C    0.033392
    10  C   -0.234911
    11  O   -0.073822
    12  C    0.099978
    16  C   -0.222565
    20  C    0.360522
    21  C    0.053447
    22  C    0.168616
    23  C    0.012271
    24  C   -0.340834
    26  C   -0.270881
    29  B    0.207575
    30  N    0.253947
    31  C   -0.235421
    35  C   -0.096723
    39  C    0.117682
    43  C    0.105696
 Electronic spatial extent (au):  <R**2>=          17843.0743
 Charge=             -0.0000 electrons
 Dipole moment (field-independent basis, Debye):
    X=             -0.4592    Y=              0.6709    Z=             -0.2662  Tot=              0.8555
 Quadrupole moment (field-independent basis, Debye-Ang):
   XX=           -118.1789   YY=           -124.0754   ZZ=           -132.4186
   XY=              1.9312   XZ=              4.5690   YZ=             -3.6906
 Traceless Quadrupole moment (field-independent basis, Debye-Ang):
   XX=              6.7120   YY=              0.8156   ZZ=             -7.5276
   XY=              1.9312   XZ=              4.5690   YZ=             -3.6906
 Octapole moment (field-independent basis, Debye-Ang**2):
  XXX=           1220.3004  YYY=          -1096.0048  ZZZ=            109.2137  XYY=            463.7110
  XXY=           -384.0051  XXZ=              8.1452  XZZ=            428.0669  YZZ=           -376.8428
  YYZ=             16.0495  XYZ=             15.6710
 Hexadecapole moment (field-independent basis, Debye-Ang**3):
 XXXX=         -11691.1600 YYYY=          -9597.9226 ZZZZ=          -2185.5051 XXXY=           3651.2513
 XXXZ=           -791.0102 YYYX=           3774.9294 YYYZ=            862.1989 ZZZX=           -977.5823
 ZZZY=            958.2603 XXYY=          -3914.5948 XXZZ=          -2293.8595 YYZZ=          -1951.8793
 XXYZ=            251.0494 YYXZ=           -279.8158 ZZXY=           1132.6316
 N-N= 1.836267224530D+03 E-N=-5.747843439672D+03  KE= 8.893123063567D+02
 Breneman (CHELPG) radii used.
 Generate Potential Derived Charges using the Breneman model, NDens= 1.
 Grid spacing= 0.300 Box extension= 2.800
 NStep X,Y,Z=   51     47     45   Total possible points=      107865
 Number of Points to Fit=   23760

 **********************************************************************

            Electrostatic Properties Using The SCF Density.

 **********************************************************************

       Atomic Center    1 is at  -2.098229  1.425373  1.025615
       Atomic Center    2 is at  -0.740555  1.292147  1.341009
       Atomic Center    3 is at   0.184296  2.270646  1.002402
       Atomic Center    4 is at  -0.243529  3.443385  0.393330
       Atomic Center    5 is at  -1.590653  3.651739  0.107015
       Atomic Center    6 is at  -2.478352  2.619109  0.404597
       Atomic Center    7 is at  -0.398164  0.389811  1.837948
       Atomic Center    8 is at   1.235313  2.131427  1.228487
       Atomic Center    9 is at   0.484262  4.210903  0.160361
       Atomic Center   10 is at  -2.161650  4.964364 -0.420172
       Atomic Center   11 is at  -3.815828  2.775959  0.132720
       Atomic Center   12 is at  -1.106740  5.801638 -1.146490
       Atomic Center   13 is at  -1.533151  6.747532 -1.485928
       Atomic Center   14 is at  -0.287130  6.056939 -0.471935
       Atomic Center   15 is at  -0.696333  5.273381 -2.010779
       Atomic Center   16 is at  -2.692342  5.774845  0.786697
       Atomic Center   17 is at  -1.872064  6.011562  1.470373
       Atomic Center   18 is at  -3.144548  6.709110  0.441932
       Atomic Center   19 is at  -3.447799  5.211917  1.339723
       Atomic Center   20 is at  -3.346563  4.624127 -1.319451
       Atomic Center   21 is at  -4.154845  3.558307 -0.943822
       Atomic Center   22 is at  -3.691312  5.345023 -2.463543
       Atomic Center   23 is at  -5.329278  3.211014 -1.637730
       Atomic Center   24 is at  -4.828128  5.012264 -3.181290
       Atomic Center   25 is at  -3.073949  6.169134 -2.796379
       Atomic Center   26 is at  -5.646783  3.967971 -2.766812
       Atomic Center   27 is at  -5.091760  5.577238 -4.068233
       Atomic Center   28 is at  -6.538395  3.736544 -3.335096
       Atomic Center   29 is at  -3.077093  0.224496  1.317588
       Atomic Center   30 is at  -6.087450  2.102360 -1.222127
       Atomic Center   31 is at  -3.022954 -0.473116  2.726440
       Atomic Center   32 is at  -3.828158 -0.002501  3.312707
       Atomic Center   33 is at  -3.261471 -1.540505  2.691640
       Atomic Center   34 is at  -2.101067 -0.318891  3.293030
       Atomic Center   35 is at  -4.040539 -0.342518  0.216755
       Atomic Center   36 is at  -3.436164 -1.071349 -0.347294
       Atomic Center   37 is at  -4.882543 -0.905030  0.633100
       Atomic Center   38 is at  -4.409146  0.393493 -0.499621
       Atomic Center   39 is at  -6.655331  2.167776  0.118299
       Atomic Center   40 is at  -7.531549  2.834578  0.155579
       Atomic Center   41 is at  -6.970104  1.165513  0.420206
       Atomic Center   42 is at  -5.913597  2.517166  0.832344
       Atomic Center   43 is at  -7.022187  1.552118 -2.181916
       Atomic Center   44 is at  -7.361419  0.580578 -1.815100
       Atomic Center   45 is at  -7.913200  2.183550 -2.336148
       Atomic Center   46 is at  -6.530466  1.398835 -3.144178
   23760 points will be used for fitting atomic charges
 Fitting point charges to electrostatic potential
 Charges from ESP fit, RMS=   0.00368 RRMS=   0.38348:
 ESP charges:
               1
     1  C   -0.294023
     2  C   -0.064616
     3  C   -0.184843
     4  C   -0.067042
     5  C   -0.144357
     6  C    0.275329
     7  H    0.094740
     8  H    0.112619
     9  H    0.103192
    10  C    0.344630
    11  O   -0.261733
    12  C   -0.257704
    13  H    0.078502
    14  H    0.080405
    15  H    0.028871
    16  C   -0.158999
    17  H    0.028634
    18  H    0.026758
    19  H    0.034027
    20  C   -0.089810
    21  C    0.136603
    22  C   -0.152323
    23  C    0.090761
    24  C   -0.164233
    25  H    0.120334
    26  C   -0.185861
    27  H    0.119860
    28  H    0.132325
    29  B    0.612203
    30  N   -0.036009
    31  C   -0.465806
    32  H    0.083127
    33  H    0.085021
    34  H    0.082624
    35  C   -0.363725
    36  H    0.054708
    37  H    0.075061
    38  H   -0.014050
    39  C    0.005621
    40  H   -0.003936
    41  H    0.041630
    42  H    0.029939
    43  C   -0.199910
    44  H    0.094319
    45  H    0.064736
    46  H    0.072401
 Sum of ESP charges =  -0.00000
 ESP charges with hydrogens summed into heavy atoms:
               1
     1  C   -0.294023
     2  C    0.030124
     3  C   -0.072224
     4  C    0.036149
     5  C   -0.144357
     6  C    0.275329
    10  C    0.344630
    11  O   -0.261733
    12  C   -0.069927
    16  C   -0.069579
    20  C   -0.089810
    21  C    0.136603
    22  C   -0.031989
    23  C    0.090761
    24  C   -0.044373
    26  C   -0.053537
    29  B    0.612203
    30  N   -0.036009
    31  C   -0.215034
    35  C   -0.248007
    39  C    0.073254
    43  C    0.031546
 Charge=  -0.00000 Dipole=    -0.4627     0.6871    -0.3242 Tot=     0.8895
 -----------------------------------------------------------------

              Electrostatic Properties (Atomic Units)

 -----------------------------------------------------------------
    Center     Electric         -------- Electric Field --------
               Potential          X             Y             Z
 -----------------------------------------------------------------
    1 Atom    -14.795660
    2 Atom    -14.776812
    3 Atom    -14.781389
    4 Atom    -14.773681
    5 Atom    -14.768939
    6 Atom    -14.716385
    7 Atom     -1.110951
    8 Atom     -1.109261
    9 Atom     -1.102918
   10 Atom    -14.738163
   11 Atom    -22.326069
   12 Atom    -14.779731
   13 Atom     -1.115118
   14 Atom     -1.114589
   15 Atom     -1.118763
   16 Atom    -14.783750
   17 Atom     -1.122179
   18 Atom     -1.122430
   19 Atom     -1.125250
   20 Atom    -14.768862
   21 Atom    -14.719713
   22 Atom    -14.781931
   23 Atom    -14.737828
   24 Atom    -14.780819
   25 Atom     -1.108147
   26 Atom    -14.780838
   27 Atom     -1.110278
   28 Atom     -1.104525
   29 Atom    -11.472069
   30 Atom    -18.383340
   31 Atom    -14.811045
   32 Atom     -1.107817
   33 Atom     -1.126200
   34 Atom     -1.128611
   35 Atom    -14.822035
   36 Atom     -1.116488
   37 Atom     -1.134401
   38 Atom     -1.142617
   39 Atom    -14.756373
   40 Atom     -1.124031
   41 Atom     -1.118773
   42 Atom     -1.121567
   43 Atom    -14.750411
   44 Atom     -1.112911
   45 Atom     -1.117383
   46 Atom     -1.112998
 -----------------------------------------------------------------
 Unable to Open any file for archive entry.
 1\1\GINC-IRENE6290\SP\RwB97XD\GenECP\C19H24B1N1O1\PENASFRA\10-Apr-2024
 \0\\# wb97xd/genecp scrf=(solvent=toluene,pcm) nosymm pop=(chelpg) scf
 cyc=300\\me_xanthene_chelpg\\0,1\C,0,-2.098229,1.425373,1.025615\C,0,-
 0.740555,1.292147,1.341009\C,0,0.184296,2.270646,1.002402\C,0,-0.24352
 9,3.443385,0.39333\C,0,-1.590653,3.651739,0.107015\C,0,-2.478352,2.619
 109,0.404597\H,0,-0.398164,0.389811,1.837948\H,0,1.235313,2.131427,1.2
 28487\H,0,0.484262,4.210903,0.160361\C,0,-2.16165,4.964364,-0.420172\O
 ,0,-3.815828,2.775959,0.13272\C,0,-1.10674,5.801638,-1.14649\H,0,-1.53
 3151,6.747532,-1.485928\H,0,-0.28713,6.056939,-0.471935\H,0,-0.696333,
 5.273381,-2.010779\C,0,-2.692342,5.774845,0.786697\H,0,-1.872064,6.011
 562,1.470373\H,0,-3.144548,6.70911,0.441932\H,0,-3.447799,5.211917,1.3
 39723\C,0,-3.346563,4.624127,-1.319451\C,0,-4.154845,3.558307,-0.94382
 2\C,0,-3.691312,5.345023,-2.463543\C,0,-5.329278,3.211014,-1.63773\C,0
 ,-4.828128,5.012264,-3.18129\H,0,-3.073949,6.169134,-2.796379\C,0,-5.6
 46783,3.967971,-2.766812\H,0,-5.09176,5.577238,-4.068233\H,0,-6.538395
 ,3.736544,-3.335096\B,0,-3.077093,0.224496,1.317588\N,0,-6.08745,2.102
 36,-1.222127\C,0,-3.022954,-0.473116,2.72644\H,0,-3.828158,-0.002501,3
 .312707\H,0,-3.261471,-1.540505,2.69164\H,0,-2.101067,-0.318891,3.2930
 3\C,0,-4.040539,-0.342518,0.216755\H,0,-3.436164,-1.071349,-0.347294\H
 ,0,-4.882543,-0.90503,0.6331\H,0,-4.409146,0.393493,-0.499621\C,0,-6.6
 55331,2.167776,0.118299\H,0,-7.531549,2.834578,0.155579\H,0,-6.970104,
 1.165513,0.420206\H,0,-5.913597,2.517166,0.832344\C,0,-7.022187,1.5521
 18,-2.181916\H,0,-7.361419,0.580578,-1.8151\H,0,-7.9132,2.18355,-2.336
 148\H,0,-6.530466,1.398835,-3.144178\\Version=AS64L-G16RevC.02\HF=-893
 .2624535\RMSD=6.497e-09\Dipole=-0.1806696,0.2639638,-0.1047162\Quadrup
 ole=4.9902432,0.6063649,-5.5966081,1.435772,3.3969533,-2.7438389\PG=C0
 1 [X(C19H24B1N1O1)]\\@
 The archive entry for this job was punched.


 I KNOW YOU BELIEVE YOU UNDERSTAND WHAT YOU THINK I SAID,
 BUT I AM NOT SURE YOU REALIZE THAT WHAT YOU HEARD IS NOT WHAT I MEANT.
 Job cpu time:       0 days  3 hours  0 minutes 11.3 seconds.
 Elapsed time:       0 days  0 hours  1 minutes 49.7 seconds.
 File lengths (MBytes):  RWF=    373 Int=      0 D2E=      0 Chk=     27 Scr=      1
 Normal termination of Gaussian 16 at Wed Apr 10 15:09:18 2024.
