 Entering Gaussian System, Link 0=/ccc/products/gaussian-16-C.02/system/default/g16/g16
 Input=mesityl_metriazole_chelpg.gjf
 Output=mesityl_metriazole_chelpg.log
 Initial command:
 /ccc/products/gaussian-16-C.02/system/default/g16/l1.exe "/ccc/scratch/cont003/gen7343/penasfra/flp/b-n_flp/mesityl_metriazole/Reactant/Gau-79767.inp" -scrdir="/ccc/scratch/cont003/gen7343/penasfra/flp/b-n_flp/mesityl_metriazole/Reactant/"
 Entering Link 1 = /ccc/products/gaussian-16-C.02/system/default/g16/l1.exe PID=     79816.
  
 Copyright (c) 1988-2021, Gaussian, Inc.  All Rights Reserved.
  
 This is part of the Gaussian(R) 16 program.  It is based on
 the Gaussian(R) 09 system (copyright 2009, Gaussian, Inc.),
 the Gaussian(R) 03 system (copyright 2003, Gaussian, Inc.),
 the Gaussian(R) 98 system (copyright 1998, Gaussian, Inc.),
 the Gaussian(R) 94 system (copyright 1995, Gaussian, Inc.),
 the Gaussian 92(TM) system (copyright 1992, Gaussian, Inc.),
 the Gaussian 90(TM) system (copyright 1990, Gaussian, Inc.),
 the Gaussian 88(TM) system (copyright 1988, Gaussian, Inc.),
 the Gaussian 86(TM) system (copyright 1986, Carnegie Mellon
 University), and the Gaussian 82(TM) system (copyright 1983,
 Carnegie Mellon University). Gaussian is a federally registered
 trademark of Gaussian, Inc.
  
 This software contains proprietary and confidential information,
 including trade secrets, belonging to Gaussian, Inc.
  
 This software is provided under written license and may be
 used, copied, transmitted, or stored only in accord with that
 written license.
  
 The following legend is applicable only to US Government
 contracts under FAR:
  
                    RESTRICTED RIGHTS LEGEND
  
 Use, reproduction and disclosure by the US Government is
 subject to restrictions as set forth in subparagraphs (a)
 and (c) of the Commercial Computer Software - Restricted
 Rights clause in FAR 52.227-19.
  
 Gaussian, Inc.
 340 Quinnipiac St., Bldg. 40, Wallingford CT 06492
  
  
 ---------------------------------------------------------------
 Warning -- This program may not be used in any manner that
 competes with the business of Gaussian, Inc. or will provide
 assistance to any competitor of Gaussian, Inc.  The licensee
 of this program is prohibited from giving any competitor of
 Gaussian, Inc. access to this program.  By using this program,
 the user acknowledges that Gaussian, Inc. is engaged in the
 business of creating and licensing software in the field of
 computational chemistry and represents and warrants to the
 licensee that it is not a competitor of Gaussian, Inc. and that
 it will not use this program in any manner prohibited above.
 ---------------------------------------------------------------
  

 Cite this work as:
 Gaussian 16, Revision C.02,
 M. J. Frisch, G. W. Trucks, H. B. Schlegel, G. E. Scuseria, 
 M. A. Robb, J. R. Cheeseman, G. Scalmani, V. Barone, 
 G. A. Petersson, H. Nakatsuji, X. Li, M. Caricato, A. V. Marenich, 
 J. Bloino, B. G. Janesko, R. Gomperts, B. Mennucci, H. P. Hratchian, 
 J. V. Ortiz, A. F. Izmaylov, J. L. Sonnenberg, D. Williams-Young, 
 F. Ding, F. Lipparini, F. Egidi, J. Goings, B. Peng, A. Petrone, 
 T. Henderson, D. Ranasinghe, V. G. Zakrzewski, J. Gao, N. Rega, 
 G. Zheng, W. Liang, M. Hada, M. Ehara, K. Toyota, R. Fukuda, 
 J. Hasegawa, M. Ishida, T. Nakajima, Y. Honda, O. Kitao, H. Nakai, 
 T. Vreven, K. Throssell, J. A. Montgomery, Jr., J. E. Peralta, 
 F. Ogliaro, M. J. Bearpark, J. J. Heyd, E. N. Brothers, K. N. Kudin, 
 V. N. Staroverov, T. A. Keith, R. Kobayashi, J. Normand, 
 K. Raghavachari, A. P. Rendell, J. C. Burant, S. S. Iyengar, 
 J. Tomasi, M. Cossi, J. M. Millam, M. Klene, C. Adamo, R. Cammi, 
 J. W. Ochterski, R. L. Martin, K. Morokuma, O. Farkas, 
 J. B. Foresman, and D. J. Fox, Gaussian, Inc., Wallingford CT, 2019.
 
 ******************************************
 Gaussian 16:  AS64L-G16RevC.02  7-Dec-2021
                 9-Apr-2024 
 ******************************************
 %nprocshared=128
 Will use up to  128 processors via shared memory.
 %mem=30GB
 %chk=mesityl_metriazole_chelpg.chk
 ----------------------------------------------------------------------
 # wb97xd/genecp scrf=(solvent=toluene,pcm) nosymm pop=(chelpg) scfcyc=
 300
 ----------------------------------------------------------------------
 1/38=1,172=1/1;
 2/12=2,15=1,17=6,18=5,40=1/2;
 3/5=7,11=2,16=1,17=8,25=1,30=1,70=2201,72=13,74=-58/1,2,3;
 4//1;
 5/5=2,7=300,38=5,53=13/2;
 6/7=2,8=2,9=2,10=2,15=8,20=3,28=1/1,2;
 99/5=1,9=1/99;
 -------------------------
 mesityl_metriazole_chelpg
 -------------------------
 Symbolic Z-matrix:
 Charge =  0 Multiplicity = 1
 C                     2.81897   1.63901   1.12637 
 H                     2.98221   2.17669   2.04646 
 C                     3.19737   0.3705    0.72572 
 N                     2.14166   2.1566    0.09324 
 N                     2.10041   1.27465  -0.92711 
 N                     2.71898   0.20987  -0.55332 
 B                     3.99866  -0.68478   1.52942 
 C                     1.536     3.46715  -0.04504 
 H                     0.88524   3.43998  -0.9165 
 H                     0.94893   3.6959    0.84395 
 H                     2.30519   4.22731  -0.18729 
 C                     3.98279  -2.20278   1.12265 
 C                     2.76668  -2.8934    0.93877 
 C                     5.18981  -2.92383   0.99119 
 C                     2.77849  -4.25466   0.64118 
 C                     5.16137  -4.2759    0.66179 
 C                     3.9642   -4.96276   0.4853 
 C                     4.79632  -0.16071   2.78838 
 C                     4.54035  -0.69834   4.06958 
 C                     5.77481   0.84224   2.66642 
 C                     5.22825  -0.21328   5.17618 
 C                     6.46358   1.28708   3.79615 
 C                     6.19786   0.78163   5.06141 
 H                     7.23406   2.04509   3.67803 
 H                     5.01231  -0.62951   6.15691 
 H                     6.10017  -4.81198   0.54916 
 H                     1.83197  -4.77642   0.52576 
 C                     1.41928  -2.22236   1.08135 
 H                     1.40072  -1.4829    1.8847 
 H                     1.15304  -1.69991   0.15936 
 H                     0.64417  -2.96258   1.29108 
 C                     6.53824  -2.26972   1.18831 
 H                     6.64445  -1.36372   0.58679 
 H                     6.69199  -1.98492   2.23221 
 H                     7.34096  -2.95158   0.90082 
 C                     3.95663  -6.42171   0.11326 
 H                     3.03742  -6.91131   0.44229 
 H                     4.02459  -6.54138  -0.97284 
 H                     4.80492  -6.94903   0.55589 
 C                     3.52532  -1.79858   4.27569 
 H                     2.54956  -1.53598   3.85812 
 H                     3.84281  -2.72381   3.78834 
 H                     3.38595  -2.00231   5.33913 
 C                     6.16156   1.449     1.33423 
 H                     5.87528   0.83011   0.48359 
 H                     5.68537   2.42468   1.19364 
 H                     7.24253   1.60284   1.28799 
 C                     6.92245   1.29176   6.27908 
 H                     7.81353   1.8593    6.00333 
 H                     6.27551   1.95031   6.8672 
 H                     7.22853   0.46889   6.93 
 
 Symmetry turned off by external request.
 Stoichiometry    C21H26BN3
 Framework group  C1[X(C21H26BN3)]
 Deg. of freedom   147
 Full point group                 C1      NOp   1
                          Input orientation:                          
 ---------------------------------------------------------------------
 Center     Atomic      Atomic             Coordinates (Angstroms)
 Number     Number       Type             X           Y           Z
 ---------------------------------------------------------------------
      1          6           0        2.818967    1.639009    1.126371
      2          1           0        2.982205    2.176694    2.046463
      3          6           0        3.197371    0.370503    0.725722
      4          7           0        2.141660    2.156601    0.093241
      5          7           0        2.100409    1.274650   -0.927106
      6          7           0        2.718975    0.209872   -0.553315
      7          5           0        3.998659   -0.684780    1.529420
      8          6           0        1.536004    3.467147   -0.045035
      9          1           0        0.885239    3.439983   -0.916501
     10          1           0        0.948928    3.695896    0.843950
     11          1           0        2.305191    4.227313   -0.187290
     12          6           0        3.982791   -2.202782    1.122646
     13          6           0        2.766681   -2.893404    0.938772
     14          6           0        5.189809   -2.923831    0.991185
     15          6           0        2.778494   -4.254661    0.641184
     16          6           0        5.161368   -4.275905    0.661790
     17          6           0        3.964200   -4.962755    0.485303
     18          6           0        4.796321   -0.160714    2.788377
     19          6           0        4.540351   -0.698340    4.069582
     20          6           0        5.774813    0.842235    2.666415
     21          6           0        5.228250   -0.213279    5.176179
     22          6           0        6.463580    1.287080    3.796153
     23          6           0        6.197862    0.781628    5.061407
     24          1           0        7.234064    2.045095    3.678034
     25          1           0        5.012307   -0.629505    6.156907
     26          1           0        6.100172   -4.811982    0.549164
     27          1           0        1.831974   -4.776418    0.525760
     28          6           0        1.419278   -2.222362    1.081346
     29          1           0        1.400716   -1.482899    1.884702
     30          1           0        1.153043   -1.699906    0.159364
     31          1           0        0.644170   -2.962584    1.291076
     32          6           0        6.538235   -2.269723    1.188307
     33          1           0        6.644447   -1.363715    0.586790
     34          1           0        6.691990   -1.984922    2.232209
     35          1           0        7.340959   -2.951575    0.900815
     36          6           0        3.956628   -6.421715    0.113256
     37          1           0        3.037420   -6.911309    0.442285
     38          1           0        4.024590   -6.541384   -0.972839
     39          1           0        4.804921   -6.949034    0.555888
     40          6           0        3.525323   -1.798578    4.275687
     41          1           0        2.549558   -1.535975    3.858120
     42          1           0        3.842806   -2.723810    3.788338
     43          1           0        3.385948   -2.002307    5.339132
     44          6           0        6.161558    1.448995    1.334228
     45          1           0        5.875278    0.830113    0.483587
     46          1           0        5.685372    2.424679    1.193639
     47          1           0        7.242534    1.602839    1.287992
     48          6           0        6.922452    1.291759    6.279079
     49          1           0        7.813529    1.859302    6.003333
     50          1           0        6.275512    1.950310    6.867198
     51          1           0        7.228533    0.468888    6.930003
 ---------------------------------------------------------------------
 Rotational constants (GHZ):           0.2459372           0.1924038           0.1294675
 General basis read from cards:  (5D, 7F)
 ======================================================================================================
                                       Pseudopotential Parameters
 ======================================================================================================
  Center     Atomic      Valence      Angular      Power
  Number     Number     Electrons     Momentum     of R      Exponent        Coefficient   SO-Coeffient
 ======================================================================================================
    1          6
                                   No pseudopotential on this center.
    2          1
                                   No pseudopotential on this center.
    3          6
                                   No pseudopotential on this center.
    4          7
                                   No pseudopotential on this center.
    5          7
                                   No pseudopotential on this center.
    6          7
                                   No pseudopotential on this center.
    7          5
                                   No pseudopotential on this center.
    8          6
                                   No pseudopotential on this center.
    9          1
                                   No pseudopotential on this center.
   10          1
                                   No pseudopotential on this center.
   11          1
                                   No pseudopotential on this center.
   12          6
                                   No pseudopotential on this center.
   13          6
                                   No pseudopotential on this center.
   14          6
                                   No pseudopotential on this center.
   15          6
                                   No pseudopotential on this center.
   16          6
                                   No pseudopotential on this center.
   17          6
                                   No pseudopotential on this center.
   18          6
                                   No pseudopotential on this center.
   19          6
                                   No pseudopotential on this center.
   20          6
                                   No pseudopotential on this center.
   21          6
                                   No pseudopotential on this center.
   22          6
                                   No pseudopotential on this center.
   23          6
                                   No pseudopotential on this center.
   24          1
                                   No pseudopotential on this center.
   25          1
                                   No pseudopotential on this center.
   26          1
                                   No pseudopotential on this center.
   27          1
                                   No pseudopotential on this center.
   28          6
                                   No pseudopotential on this center.
   29          1
                                   No pseudopotential on this center.
   30          1
                                   No pseudopotential on this center.
   31          1
                                   No pseudopotential on this center.
   32          6
                                   No pseudopotential on this center.
   33          1
                                   No pseudopotential on this center.
   34          1
                                   No pseudopotential on this center.
   35          1
                                   No pseudopotential on this center.
   36          6
                                   No pseudopotential on this center.
   37          1
                                   No pseudopotential on this center.
   38          1
                                   No pseudopotential on this center.
   39          1
                                   No pseudopotential on this center.
   40          6
                                   No pseudopotential on this center.
   41          1
                                   No pseudopotential on this center.
   42          1
                                   No pseudopotential on this center.
   43          1
                                   No pseudopotential on this center.
   44          6
                                   No pseudopotential on this center.
   45          1
                                   No pseudopotential on this center.
   46          1
                                   No pseudopotential on this center.
   47          1
                                   No pseudopotential on this center.
   48          6
                                   No pseudopotential on this center.
   49          1
                                   No pseudopotential on this center.
   50          1
                                   No pseudopotential on this center.
   51          1
                                   No pseudopotential on this center.
 ======================================================================================================
   732 basis functions,  1134 primitive gaussians,   757 cartesian basis functions
    89 alpha electrons       89 beta electrons
       nuclear repulsion energy      2145.1586441210 Hartrees.
 NAtoms=   51 NActive=   51 NUniq=   51 SFac= 1.00D+00 NAtFMM=   60 NAOKFM=F Big=F
 Integral buffers will be    131072 words long.
 Raffenetti 2 integral format.
 Two-electron integral symmetry is turned off.
 Nuclear repulsion after empirical dispersion term =     2145.1120948787 Hartrees.
 ------------------------------------------------------------------------------
 Polarizable Continuum Model (PCM)
 =================================
 Model                : PCM.
 Atomic radii         : UFF (Universal Force Field).
 Polarization charges : Total charges.
 Charge compensation  : None.
 Solution method      : On-the-fly selection.
 Cavity type          : Scaled VdW (van der Waals Surface) (Alpha=1.100).
 Cavity algorithm     : GePol (No added spheres)
                        Default sphere list used, NSphG=   51.
                        Lebedev-Laikov grids with approx.  5.0 points / Ang**2.
                        Smoothing algorithm: York/Karplus (Gamma=1.0000).
                        Polarization charges: spherical gaussians, with
                                              point-specific exponents (IZeta= 3).
                        Self-potential: point-specific (ISelfS= 7).
                        Self-field    : sphere-specific E.n sum rule (ISelfD= 2).
 Solvent              : Toluene, Eps=   2.374100 Eps(inf)=   2.238315
 ------------------------------------------------------------------------------
 One-electron integrals computed using PRISM.
   1 Symmetry operations used in ECPInt.
 ECPInt:  NShTT=   39340 NPrTT=  129306 LenC2=   34628 LenP2D=   77857.
 LDataN:  DoStor=T MaxTD1= 4 Len=   56
 Number of processors reduced to  64 by ecpmxn.
 NBasis=   732 RedAO= T EigKep=  1.20D-06  NBF=   732
 NBsUse=   724 1.00D-06 EigRej=  6.69D-07 NBFU=   724
 ExpMin= 3.15D-02 ExpMax= 6.29D+03 ExpMxC= 9.49D+02 IAcc=3 IRadAn=         5 AccDes= 0.00D+00
 Harris functional with IExCor= 4639 and IRadAn=       5 diagonalized for initial guess.
 HarFok:  IExCor= 4639 AccDes= 0.00D+00 IRadAn=         5 IDoV= 1 UseB2=F ITyADJ=14
 ICtDFT=  3500011 ScaDFX=  1.000000  1.000000  1.000000  1.000000
 FoFCou: FMM=F IPFlag=           0 FMFlag=      100000 FMFlg1=           0
         NFxFlg=           0 DoJE=T BraDBF=F KetDBF=T FulRan=T
         wScrn=  0.000000 ICntrl=       500 IOpCl=  0 I1Cent=   200000004 NGrid=           0
         NMat0=    1 NMatS0=      1 NMatT0=    0 NMatD0=    1 NMtDS0=    0 NMtDT0=    0
 Symmetry not used in FoFCou.
 Requested convergence on RMS density matrix=1.00D-08 within 300 cycles.
 Requested convergence on MAX density matrix=1.00D-06.
 Requested convergence on             energy=1.00D-06.
 No special actions if energy rises.
 Inv3:  Mode=1 IEnd=    34741227.
 Iteration    1 A*A^-1 deviation from unit magnitude is 7.11D-15 for   3395.
 Iteration    1 A*A^-1 deviation from orthogonality  is 4.07D-15 for   3395   2379.
 Iteration    1 A^-1*A deviation from unit magnitude is 6.66D-15 for   3395.
 Iteration    1 A^-1*A deviation from orthogonality  is 2.18D-15 for   3282   1248.
 Error on total polarization charges =  0.01108
 SCF Done:  E(RwB97XD) =  -1004.93873614     A.U. after   17 cycles
            NFock= 17  Conv=0.29D-08     -V/T= 2.0044

 **********************************************************************

            Population analysis using the SCF Density.

 **********************************************************************

 Alpha  occ. eigenvalues --  -14.53384 -14.49567 -14.45815 -10.33853 -10.33623
 Alpha  occ. eigenvalues --  -10.29689 -10.29590 -10.29506 -10.29153 -10.29149
 Alpha  occ. eigenvalues --  -10.29128 -10.29007 -10.27845 -10.27726 -10.27617
 Alpha  occ. eigenvalues --  -10.27555 -10.27398 -10.27234 -10.27001 -10.26972
 Alpha  occ. eigenvalues --  -10.26884 -10.26766 -10.26622 -10.26133  -6.84989
 Alpha  occ. eigenvalues --   -1.21477  -1.02960  -0.96483  -0.95784  -0.91230
 Alpha  occ. eigenvalues --   -0.88347  -0.88220  -0.87585  -0.87461  -0.84303
 Alpha  occ. eigenvalues --   -0.79874  -0.79307  -0.78306  -0.77554  -0.76992
 Alpha  occ. eigenvalues --   -0.76829  -0.73188  -0.69336  -0.67253  -0.66453
 Alpha  occ. eigenvalues --   -0.65899  -0.65593  -0.63305  -0.59649  -0.59538
 Alpha  occ. eigenvalues --   -0.57483  -0.56753  -0.56468  -0.54533  -0.53065
 Alpha  occ. eigenvalues --   -0.52029  -0.51710  -0.51483  -0.51209  -0.51076
 Alpha  occ. eigenvalues --   -0.50412  -0.50127  -0.50027  -0.49615  -0.48949
 Alpha  occ. eigenvalues --   -0.48617  -0.48243  -0.48147  -0.47708  -0.47593
 Alpha  occ. eigenvalues --   -0.47248  -0.46326  -0.45245  -0.44615  -0.43980
 Alpha  occ. eigenvalues --   -0.42721  -0.42365  -0.41695  -0.41233  -0.40784
 Alpha  occ. eigenvalues --   -0.39374  -0.38481  -0.37942  -0.35816  -0.34844
 Alpha  occ. eigenvalues --   -0.31401  -0.30883  -0.30708  -0.30191
 Alpha virt. eigenvalues --   -0.00064   0.03532   0.04328   0.04510   0.04788
 Alpha virt. eigenvalues --    0.05206   0.05345   0.05526   0.05835   0.05977
 Alpha virt. eigenvalues --    0.06515   0.06582   0.06925   0.07200   0.07443
 Alpha virt. eigenvalues --    0.07755   0.08152   0.08334   0.08628   0.08712
 Alpha virt. eigenvalues --    0.08991   0.09337   0.09828   0.10314   0.10530
 Alpha virt. eigenvalues --    0.10602   0.10718   0.11161   0.11809   0.12170
 Alpha virt. eigenvalues --    0.12775   0.12812   0.13136   0.13588   0.13784
 Alpha virt. eigenvalues --    0.14416   0.14587   0.14999   0.15229   0.15633
 Alpha virt. eigenvalues --    0.15787   0.16178   0.16424   0.16530   0.16683
 Alpha virt. eigenvalues --    0.16856   0.17038   0.17162   0.17698   0.17847
 Alpha virt. eigenvalues --    0.17939   0.18170   0.18351   0.18465   0.18728
 Alpha virt. eigenvalues --    0.18961   0.19192   0.19212   0.19542   0.19717
 Alpha virt. eigenvalues --    0.20067   0.20228   0.20251   0.20575   0.20804
 Alpha virt. eigenvalues --    0.21085   0.21210   0.21302   0.21848   0.21966
 Alpha virt. eigenvalues --    0.22153   0.22460   0.22632   0.22939   0.23214
 Alpha virt. eigenvalues --    0.23511   0.23623   0.23942   0.24236   0.24423
 Alpha virt. eigenvalues --    0.24753   0.24792   0.24909   0.25407   0.25635
 Alpha virt. eigenvalues --    0.25777   0.25872   0.26120   0.26252   0.26457
 Alpha virt. eigenvalues --    0.26503   0.27129   0.27435   0.27574   0.27846
 Alpha virt. eigenvalues --    0.27981   0.28138   0.28681   0.28953   0.29174
 Alpha virt. eigenvalues --    0.29454   0.29604   0.30008   0.30423   0.30527
 Alpha virt. eigenvalues --    0.30844   0.31266   0.31481   0.31797   0.32138
 Alpha virt. eigenvalues --    0.32301   0.32594   0.32937   0.33269   0.33458
 Alpha virt. eigenvalues --    0.33561   0.33994   0.34152   0.34212   0.34515
 Alpha virt. eigenvalues --    0.34800   0.34907   0.35516   0.35552   0.35992
 Alpha virt. eigenvalues --    0.36147   0.36443   0.36781   0.36910   0.37162
 Alpha virt. eigenvalues --    0.37407   0.37705   0.38030   0.38173   0.38480
 Alpha virt. eigenvalues --    0.38921   0.39058   0.39615   0.39806   0.40041
 Alpha virt. eigenvalues --    0.40168   0.40666   0.40784   0.41245   0.41394
 Alpha virt. eigenvalues --    0.41743   0.42162   0.42344   0.42395   0.42957
 Alpha virt. eigenvalues --    0.43111   0.43899   0.44098   0.44514   0.44765
 Alpha virt. eigenvalues --    0.45282   0.45959   0.46571   0.46810   0.47241
 Alpha virt. eigenvalues --    0.47496   0.47576   0.48374   0.48581   0.49162
 Alpha virt. eigenvalues --    0.49492   0.49530   0.50474   0.51109   0.51785
 Alpha virt. eigenvalues --    0.52345   0.52664   0.53394   0.54856   0.54917
 Alpha virt. eigenvalues --    0.55994   0.56305   0.56795   0.57286   0.57676
 Alpha virt. eigenvalues --    0.58191   0.58449   0.58987   0.59750   0.60246
 Alpha virt. eigenvalues --    0.60838   0.62545   0.63129   0.63701   0.64226
 Alpha virt. eigenvalues --    0.64756   0.65243   0.65642   0.65943   0.66667
 Alpha virt. eigenvalues --    0.67140   0.67679   0.68137   0.69093   0.69591
 Alpha virt. eigenvalues --    0.69896   0.70246   0.70753   0.71284   0.71660
 Alpha virt. eigenvalues --    0.72223   0.72501   0.72825   0.73068   0.73634
 Alpha virt. eigenvalues --    0.74245   0.74341   0.74473   0.75476   0.75517
 Alpha virt. eigenvalues --    0.76037   0.76413   0.76865   0.77269   0.77754
 Alpha virt. eigenvalues --    0.78069   0.78412   0.78812   0.79164   0.79560
 Alpha virt. eigenvalues --    0.79893   0.80177   0.80386   0.80982   0.81349
 Alpha virt. eigenvalues --    0.82047   0.82455   0.82799   0.83541   0.83677
 Alpha virt. eigenvalues --    0.83685   0.84265   0.84712   0.84949   0.85363
 Alpha virt. eigenvalues --    0.85850   0.86317   0.86814   0.86945   0.87262
 Alpha virt. eigenvalues --    0.87710   0.87935   0.88457   0.89267   0.89504
 Alpha virt. eigenvalues --    0.89733   0.90263   0.90773   0.91143   0.92029
 Alpha virt. eigenvalues --    0.92571   0.93453   0.94933   0.95380   0.95700
 Alpha virt. eigenvalues --    0.96021   0.96218   0.97623   0.99563   0.99770
 Alpha virt. eigenvalues --    0.99953   1.00416   1.00567   1.01496   1.02178
 Alpha virt. eigenvalues --    1.02745   1.03137   1.03511   1.04433   1.05137
 Alpha virt. eigenvalues --    1.05718   1.06244   1.06293   1.06822   1.07989
 Alpha virt. eigenvalues --    1.08343   1.09138   1.09952   1.10170   1.10913
 Alpha virt. eigenvalues --    1.11625   1.12342   1.12411   1.13326   1.14156
 Alpha virt. eigenvalues --    1.14849   1.15488   1.16041   1.16204   1.17169
 Alpha virt. eigenvalues --    1.17522   1.17850   1.19240   1.19627   1.19898
 Alpha virt. eigenvalues --    1.20452   1.21158   1.22165   1.23701   1.24311
 Alpha virt. eigenvalues --    1.24699   1.26193   1.26753   1.27521   1.27946
 Alpha virt. eigenvalues --    1.31010   1.31676   1.32941   1.35493   1.38947
 Alpha virt. eigenvalues --    1.39425   1.40705   1.41506   1.42345   1.43766
 Alpha virt. eigenvalues --    1.44382   1.45206   1.46029   1.46691   1.47253
 Alpha virt. eigenvalues --    1.47834   1.48519   1.49736   1.49957   1.50595
 Alpha virt. eigenvalues --    1.51672   1.52956   1.53241   1.53679   1.55133
 Alpha virt. eigenvalues --    1.56442   1.56928   1.57865   1.58120   1.58679
 Alpha virt. eigenvalues --    1.59511   1.60526   1.61009   1.61446   1.62000
 Alpha virt. eigenvalues --    1.63014   1.63584   1.63908   1.64646   1.65201
 Alpha virt. eigenvalues --    1.65325   1.65826   1.66397   1.66858   1.67167
 Alpha virt. eigenvalues --    1.67692   1.67939   1.68095   1.68696   1.69408
 Alpha virt. eigenvalues --    1.69739   1.70183   1.70646   1.71055   1.71624
 Alpha virt. eigenvalues --    1.72019   1.72386   1.72868   1.73630   1.73670
 Alpha virt. eigenvalues --    1.74835   1.75107   1.76083   1.77426   1.78067
 Alpha virt. eigenvalues --    1.78273   1.78619   1.79036   1.80060   1.81120
 Alpha virt. eigenvalues --    1.81756   1.82863   1.83723   1.84332   1.84872
 Alpha virt. eigenvalues --    1.85850   1.86770   1.87441   1.87941   1.88567
 Alpha virt. eigenvalues --    1.89282   1.89635   1.90508   1.91018   1.92052
 Alpha virt. eigenvalues --    1.92764   1.93551   1.94436   1.94962   1.95872
 Alpha virt. eigenvalues --    1.96448   1.97616   1.98992   1.99888   2.00116
 Alpha virt. eigenvalues --    2.00466   2.01432   2.02445   2.02781   2.03317
 Alpha virt. eigenvalues --    2.04317   2.04833   2.05503   2.06558   2.08758
 Alpha virt. eigenvalues --    2.09870   2.10206   2.11133   2.12064   2.12529
 Alpha virt. eigenvalues --    2.13840   2.14365   2.15047   2.15883   2.16051
 Alpha virt. eigenvalues --    2.17350   2.17817   2.18764   2.20243   2.20601
 Alpha virt. eigenvalues --    2.21778   2.22714   2.23284   2.24097   2.24422
 Alpha virt. eigenvalues --    2.26129   2.27412   2.28456   2.28913   2.29613
 Alpha virt. eigenvalues --    2.30869   2.33828   2.33883   2.34868   2.35206
 Alpha virt. eigenvalues --    2.36934   2.37474   2.38140   2.39106   2.39366
 Alpha virt. eigenvalues --    2.39543   2.40708   2.41745   2.42169   2.42988
 Alpha virt. eigenvalues --    2.43659   2.44152   2.45127   2.45642   2.47994
 Alpha virt. eigenvalues --    2.51389   2.52131   2.53306   2.55338   2.56412
 Alpha virt. eigenvalues --    2.57364   2.57441   2.58545   2.59215   2.60513
 Alpha virt. eigenvalues --    2.61924   2.62349   2.62553   2.62890   2.63074
 Alpha virt. eigenvalues --    2.64424   2.65676   2.65842   2.66170   2.66721
 Alpha virt. eigenvalues --    2.67604   2.68402   2.68792   2.69924   2.70188
 Alpha virt. eigenvalues --    2.70434   2.70799   2.71183   2.71574   2.72272
 Alpha virt. eigenvalues --    2.72684   2.73118   2.74249   2.75744   2.76531
 Alpha virt. eigenvalues --    2.76766   2.78053   2.78721   2.79312   2.80020
 Alpha virt. eigenvalues --    2.81945   2.82549   2.83202   2.84566   2.84893
 Alpha virt. eigenvalues --    2.85507   2.86432   2.87350   2.88431   2.88813
 Alpha virt. eigenvalues --    2.89833   2.90206   2.91296   2.92072   2.92954
 Alpha virt. eigenvalues --    2.93687   2.94019   2.94390   2.94650   2.95512
 Alpha virt. eigenvalues --    2.96638   2.97842   2.98470   2.99583   3.00564
 Alpha virt. eigenvalues --    3.01269   3.03717   3.04354   3.05664   3.06057
 Alpha virt. eigenvalues --    3.06379   3.07449   3.08503   3.09081   3.09725
 Alpha virt. eigenvalues --    3.09905   3.13054   3.14328   3.15424   3.16006
 Alpha virt. eigenvalues --    3.17697   3.18728   3.19574   3.22884   3.23130
 Alpha virt. eigenvalues --    3.24658   3.26974   3.28370   3.28929   3.31528
 Alpha virt. eigenvalues --    3.31926   3.32940   3.35655   3.35822   3.36811
 Alpha virt. eigenvalues --    3.39288   3.39887   3.40504   3.50218   3.53603
 Alpha virt. eigenvalues --    3.54697   3.55291   3.59404   3.62431   3.64004
 Alpha virt. eigenvalues --    3.69114   3.74899   3.80517   3.80969   3.81441
 Alpha virt. eigenvalues --    3.82100   3.82808   3.83060   3.87836   3.89454
 Alpha virt. eigenvalues --    3.90615   3.91577   3.92259   3.92460   3.93055
 Alpha virt. eigenvalues --    3.93350   3.93534   3.93914   3.94107   3.95157
 Alpha virt. eigenvalues --    3.95947   3.97366   3.98454   3.99620   4.07696
 Alpha virt. eigenvalues --    4.13507   4.18370   4.19983   4.21975   4.23826
 Alpha virt. eigenvalues --    4.24695   4.25245   4.34850   4.42469   4.43313
 Alpha virt. eigenvalues --    4.46477   4.46841   4.47244   4.47563   4.76777
 Alpha virt. eigenvalues --    4.96638   4.98597   4.98895   5.11662   5.76798
 Alpha virt. eigenvalues --   14.92781  23.76399  23.78336  23.94782  24.05831
 Alpha virt. eigenvalues --   24.06381  24.07167  24.07896  24.08483  24.11717
 Alpha virt. eigenvalues --   24.12140  24.15843  24.16116  24.16508  24.18769
 Alpha virt. eigenvalues --   24.21837  24.23484  24.25938  24.26153  24.27080
 Alpha virt. eigenvalues --   24.32626  24.33187  35.59450  35.65223  35.80536
          Condensed to atoms (all electrons):
 Mulliken charges:
               1
     1  C   -0.862325
     2  H    0.296443
     3  C   -0.831482
     4  N    0.338503
     5  N    0.221936
     6  N   -0.061761
     7  B   -0.749104
     8  C   -0.348399
     9  H    0.212797
    10  H    0.196208
    11  H    0.202498
    12  C    0.343712
    13  C    0.120083
    14  C    0.272556
    15  C   -0.153104
    16  C   -0.382160
    17  C    0.084070
    18  C    0.208136
    19  C    0.230660
    20  C    0.184491
    21  C   -0.418588
    22  C   -0.432183
    23  C    0.168996
    24  H    0.213940
    25  H    0.198135
    26  H    0.202743
    27  H    0.204144
    28  C   -0.496238
    29  H    0.113673
    30  H    0.243066
    31  H    0.183096
    32  C   -0.470338
    33  H    0.184221
    34  H    0.226907
    35  H    0.182713
    36  C   -0.548239
    37  H    0.163551
    38  H    0.208610
    39  H    0.164722
    40  C   -0.501341
    41  H    0.202998
    42  H    0.225225
    43  H    0.189956
    44  C   -0.566983
    45  H    0.164251
    46  H    0.218480
    47  H    0.207410
    48  C   -0.498651
    49  H    0.165180
    50  H    0.205456
    51  H    0.171336
 Sum of Mulliken charges =  -0.00000
 Mulliken charges with hydrogens summed into heavy atoms:
               1
     1  C   -0.565882
     3  C   -0.831482
     4  N    0.338503
     5  N    0.221936
     6  N   -0.061761
     7  B   -0.749104
     8  C    0.263103
    12  C    0.343712
    13  C    0.120083
    14  C    0.272556
    15  C    0.051040
    16  C   -0.179417
    17  C    0.084070
    18  C    0.208136
    19  C    0.230660
    20  C    0.184491
    21  C   -0.220454
    22  C   -0.218243
    23  C    0.168996
    28  C    0.043597
    32  C    0.123502
    36  C   -0.011357
    40  C    0.116837
    44  C    0.023157
    48  C    0.043320
 Electronic spatial extent (au):  <R**2>=          22433.9359
 Charge=             -0.0000 electrons
 Dipole moment (field-independent basis, Debye):
    X=             -0.3427    Y=              4.1221    Z=              3.1953  Tot=              5.2267
 Quadrupole moment (field-independent basis, Debye-Ang):
   XX=           -143.7706   YY=           -127.5969   ZZ=           -147.9100
   XY=             10.4977   XZ=              9.5061   YZ=              4.5542
 Traceless Quadrupole moment (field-independent basis, Debye-Ang):
   XX=             -4.0114   YY=             12.1622   ZZ=             -8.1508
   XY=             10.4977   XZ=              9.5061   YZ=              4.5542
 Octapole moment (field-independent basis, Debye-Ang**2):
  XXX=          -1791.2306  YYY=            394.1147  ZZZ=           -752.8645  XYY=           -569.3218
  XXY=            166.3698  XXZ=           -228.4556  XZZ=           -598.3838  YZZ=            140.3816
  YYZ=           -272.5526  XYZ=             25.2391
 Hexadecapole moment (field-independent basis, Debye-Ang**3):
 XXXX=         -17727.0629 YYYY=          -6050.3074 ZZZZ=          -6139.2584 XXXY=           1771.5695
 XXXZ=          -4020.2199 YYYX=           1490.6498 YYYZ=            283.7939 ZZZX=          -3921.2416
 ZZZY=            249.5750 XXYY=          -3917.1064 XXZZ=          -3958.4869 YYZZ=          -2233.8662
 XXYZ=            244.4994 YYXZ=          -1435.4898 ZZXY=            621.0339
 N-N= 2.145112094879D+03 E-N=-6.624102674597D+03  KE= 1.000525427672D+03
 Breneman (CHELPG) radii used.
 Generate Potential Derived Charges using the Breneman model, NDens= 1.
 Grid spacing= 0.300 Box extension= 2.800
 NStep X,Y,Z=   44     56     47   Total possible points=      115808
 Number of Points to Fit=   26855

 **********************************************************************

            Electrostatic Properties Using The SCF Density.

 **********************************************************************

       Atomic Center    1 is at   2.818967  1.639009  1.126371
       Atomic Center    2 is at   2.982205  2.176694  2.046463
       Atomic Center    3 is at   3.197371  0.370503  0.725722
       Atomic Center    4 is at   2.141660  2.156601  0.093241
       Atomic Center    5 is at   2.100409  1.274650 -0.927106
       Atomic Center    6 is at   2.718975  0.209872 -0.553315
       Atomic Center    7 is at   3.998659 -0.684780  1.529420
       Atomic Center    8 is at   1.536004  3.467147 -0.045035
       Atomic Center    9 is at   0.885239  3.439983 -0.916501
       Atomic Center   10 is at   0.948928  3.695896  0.843950
       Atomic Center   11 is at   2.305191  4.227313 -0.187290
       Atomic Center   12 is at   3.982791 -2.202782  1.122646
       Atomic Center   13 is at   2.766681 -2.893404  0.938772
       Atomic Center   14 is at   5.189809 -2.923831  0.991185
       Atomic Center   15 is at   2.778494 -4.254661  0.641184
       Atomic Center   16 is at   5.161368 -4.275905  0.661790
       Atomic Center   17 is at   3.964200 -4.962755  0.485303
       Atomic Center   18 is at   4.796321 -0.160714  2.788377
       Atomic Center   19 is at   4.540351 -0.698340  4.069582
       Atomic Center   20 is at   5.774813  0.842235  2.666415
       Atomic Center   21 is at   5.228250 -0.213279  5.176179
       Atomic Center   22 is at   6.463580  1.287080  3.796153
       Atomic Center   23 is at   6.197862  0.781628  5.061407
       Atomic Center   24 is at   7.234064  2.045095  3.678034
       Atomic Center   25 is at   5.012307 -0.629505  6.156907
       Atomic Center   26 is at   6.100172 -4.811982  0.549164
       Atomic Center   27 is at   1.831974 -4.776418  0.525760
       Atomic Center   28 is at   1.419278 -2.222362  1.081346
       Atomic Center   29 is at   1.400716 -1.482899  1.884702
       Atomic Center   30 is at   1.153043 -1.699906  0.159364
       Atomic Center   31 is at   0.644170 -2.962584  1.291076
       Atomic Center   32 is at   6.538235 -2.269723  1.188307
       Atomic Center   33 is at   6.644447 -1.363715  0.586790
       Atomic Center   34 is at   6.691990 -1.984922  2.232209
       Atomic Center   35 is at   7.340959 -2.951575  0.900815
       Atomic Center   36 is at   3.956628 -6.421715  0.113256
       Atomic Center   37 is at   3.037420 -6.911309  0.442285
       Atomic Center   38 is at   4.024590 -6.541384 -0.972839
       Atomic Center   39 is at   4.804921 -6.949034  0.555888
       Atomic Center   40 is at   3.525323 -1.798578  4.275687
       Atomic Center   41 is at   2.549558 -1.535975  3.858120
       Atomic Center   42 is at   3.842806 -2.723810  3.788338
       Atomic Center   43 is at   3.385948 -2.002307  5.339132
       Atomic Center   44 is at   6.161558  1.448995  1.334228
       Atomic Center   45 is at   5.875278  0.830113  0.483587
       Atomic Center   46 is at   5.685372  2.424679  1.193639
       Atomic Center   47 is at   7.242534  1.602839  1.287992
       Atomic Center   48 is at   6.922452  1.291759  6.279079
       Atomic Center   49 is at   7.813529  1.859302  6.003333
       Atomic Center   50 is at   6.275512  1.950310  6.867198
       Atomic Center   51 is at   7.228533  0.468888  6.930003
   26855 points will be used for fitting atomic charges
 Fitting point charges to electrostatic potential
 Charges from ESP fit, RMS=   0.00393 RRMS=   0.22715:
 ESP charges:
               1
     1  C   -0.291409
     2  H    0.101388
     3  C    0.174706
     4  N    0.551306
     5  N   -0.313377
     6  N   -0.394585
     7  B    0.437459
     8  C   -0.328006
     9  H    0.099372
    10  H    0.140101
    11  H    0.136580
    12  C   -0.334205
    13  C    0.209483
    14  C    0.228120
    15  C   -0.393186
    16  C   -0.418761
    17  C    0.297307
    18  C   -0.285137
    19  C    0.141876
    20  C    0.300746
    21  C   -0.400530
    22  C   -0.459483
    23  C    0.311535
    24  H    0.166014
    25  H    0.160447
    26  H    0.157297
    27  H    0.152906
    28  C   -0.187850
    29  H    0.054882
    30  H    0.082373
    31  H    0.051954
    32  C   -0.108825
    33  H   -0.005413
    34  H    0.019276
    35  H    0.046259
    36  C   -0.242699
    37  H    0.068413
    38  H    0.070514
    39  H    0.069758
    40  C   -0.037220
    41  H   -0.012497
    42  H    0.018425
    43  H    0.025096
    44  C   -0.247092
    45  H    0.101458
    46  H    0.054601
    47  H    0.066328
    48  C   -0.250561
    49  H    0.074289
    50  H    0.067087
    51  H    0.073480
 Sum of ESP charges =  -0.00000
 ESP charges with hydrogens summed into heavy atoms:
               1
     1  C   -0.190020
     3  C    0.174706
     4  N    0.551306
     5  N   -0.313377
     6  N   -0.394585
     7  B    0.437459
     8  C    0.048047
    12  C   -0.334205
    13  C    0.209483
    14  C    0.228120
    15  C   -0.240281
    16  C   -0.261464
    17  C    0.297307
    18  C   -0.285137
    19  C    0.141876
    20  C    0.300746
    21  C   -0.240084
    22  C   -0.293469
    23  C    0.311535
    28  C    0.001359
    32  C   -0.048703
    36  C   -0.034015
    40  C   -0.006196
    44  C   -0.024704
    48  C   -0.035705
 Charge=  -0.00000 Dipole=    -0.3170     4.0654     3.0635 Tot=     5.1003
 -----------------------------------------------------------------

              Electrostatic Properties (Atomic Units)

 -----------------------------------------------------------------
    Center     Electric         -------- Electric Field --------
               Potential          X             Y             Z
 -----------------------------------------------------------------
    1 Atom    -14.724557
    2 Atom     -1.049117
    3 Atom    -14.778319
    4 Atom    -18.293323
    5 Atom    -18.358835
    6 Atom    -18.396808
    7 Atom    -11.468550
    8 Atom    -14.707544
    9 Atom     -1.073712
   10 Atom     -1.066868
   11 Atom     -1.072036
   12 Atom    -14.809267
   13 Atom    -14.779691
   14 Atom    -14.778461
   15 Atom    -14.801476
   16 Atom    -14.800476
   17 Atom    -14.779771
   18 Atom    -14.799002
   19 Atom    -14.769497
   20 Atom    -14.766277
   21 Atom    -14.789936
   22 Atom    -14.787993
   23 Atom    -14.769003
   24 Atom     -1.110846
   25 Atom     -1.113631
   26 Atom     -1.122893
   27 Atom     -1.124113
   28 Atom    -14.795955
   29 Atom     -1.128302
   30 Atom     -1.137115
   31 Atom     -1.131404
   32 Atom    -14.792866
   33 Atom     -1.127789
   34 Atom     -1.130208
   35 Atom     -1.130017
   36 Atom    -14.785847
   37 Atom     -1.123396
   38 Atom     -1.121782
   39 Atom     -1.122965
   40 Atom    -14.787269
   41 Atom     -1.121807
   42 Atom     -1.127366
   43 Atom     -1.124087
   44 Atom    -14.778751
   45 Atom     -1.119395
   46 Atom     -1.112074
   47 Atom     -1.116168
   48 Atom    -14.776598
   49 Atom     -1.114907
   50 Atom     -1.112446
   51 Atom     -1.114256
 -----------------------------------------------------------------
 Unable to Open any file for archive entry.
 1\1\GINC-IRENE6098\SP\RwB97XD\GenECP\C21H26B1N3\PENASFRA\09-Apr-2024\0
 \\# wb97xd/genecp scrf=(solvent=toluene,pcm) nosymm pop=(chelpg) scfcy
 c=300\\mesityl_metriazole_chelpg\\0,1\C,0,2.818967,1.639009,1.126371\H
 ,0,2.982205,2.176694,2.046463\C,0,3.197371,0.370503,0.725722\N,0,2.141
 66,2.156601,0.093241\N,0,2.100409,1.27465,-0.927106\N,0,2.718975,0.209
 872,-0.553315\B,0,3.998659,-0.68478,1.52942\C,0,1.536004,3.467147,-0.0
 45035\H,0,0.885239,3.439983,-0.916501\H,0,0.948928,3.695896,0.84395\H,
 0,2.305191,4.227313,-0.18729\C,0,3.982791,-2.202782,1.122646\C,0,2.766
 681,-2.893404,0.938772\C,0,5.189809,-2.923831,0.991185\C,0,2.778494,-4
 .254661,0.641184\C,0,5.161368,-4.275905,0.66179\C,0,3.9642,-4.962755,0
 .485303\C,0,4.796321,-0.160714,2.788377\C,0,4.540351,-0.69834,4.069582
 \C,0,5.774813,0.842235,2.666415\C,0,5.22825,-0.213279,5.176179\C,0,6.4
 6358,1.28708,3.796153\C,0,6.197862,0.781628,5.061407\H,0,7.234064,2.04
 5095,3.678034\H,0,5.012307,-0.629505,6.156907\H,0,6.100172,-4.811982,0
 .549164\H,0,1.831974,-4.776418,0.52576\C,0,1.419278,-2.222362,1.081346
 \H,0,1.400716,-1.482899,1.884702\H,0,1.153043,-1.699906,0.159364\H,0,0
 .64417,-2.962584,1.291076\C,0,6.538235,-2.269723,1.188307\H,0,6.644447
 ,-1.363715,0.58679\H,0,6.69199,-1.984922,2.232209\H,0,7.340959,-2.9515
 75,0.900815\C,0,3.956628,-6.421715,0.113256\H,0,3.03742,-6.911309,0.44
 2285\H,0,4.02459,-6.541384,-0.972839\H,0,4.804921,-6.949034,0.555888\C
 ,0,3.525323,-1.798578,4.275687\H,0,2.549558,-1.535975,3.85812\H,0,3.84
 2806,-2.72381,3.788338\H,0,3.385948,-2.002307,5.339132\C,0,6.161558,1.
 448995,1.334228\H,0,5.875278,0.830113,0.483587\H,0,5.685372,2.424679,1
 .193639\H,0,7.242534,1.602839,1.287992\C,0,6.922452,1.291759,6.279079\
 H,0,7.813529,1.859302,6.003333\H,0,6.275512,1.95031,6.867198\H,0,7.228
 533,0.468888,6.930003\\Version=AS64L-G16RevC.02\HF=-1004.9387361\RMSD=
 2.941e-09\Dipole=-0.134835,1.6217398,1.2571281\Quadrupole=-2.9823842,9
 .0423318,-6.0599477,7.8047878,7.067547,3.3859478\PG=C01 [X(C21H26B1N3)
 ]\\@
 The archive entry for this job was punched.


 THE SOLUTION TO A PROBLEM CHANGES THE PROBLEM.

                                 -- JOHN PEERS
           PAUL DICKSON'S "THE OFFICIAL RULES"
 Job cpu time:       0 days  4 hours 11 minutes 30.6 seconds.
 Elapsed time:       0 days  0 hours  2 minutes 26.3 seconds.
 File lengths (MBytes):  RWF=    477 Int=      0 D2E=      0 Chk=     33 Scr=      1
 Normal termination of Gaussian 16 at Tue Apr  9 18:00:59 2024.
