 Entering Gaussian System, Link 0=/ccc/products/gaussian-16-C.02/system/default/g16/g16
 Input=no2_benzopiperidine_chelpg.gjf
 Output=no2_benzopiperidine_chelpg.log
 Initial command:
 /ccc/products/gaussian-16-C.02/system/default/g16/l1.exe "/ccc/scratch/cont003/gen7343/penasfra/flp/b-n_flp/no2_benzopiperidine/reac/Gau-238169.inp" -scrdir="/ccc/scratch/cont003/gen7343/penasfra/flp/b-n_flp/no2_benzopiperidine/reac/"
 Entering Link 1 = /ccc/products/gaussian-16-C.02/system/default/g16/l1.exe PID=    238218.
  
 Copyright (c) 1988-2021, Gaussian, Inc.  All Rights Reserved.
  
 This is part of the Gaussian(R) 16 program.  It is based on
 the Gaussian(R) 09 system (copyright 2009, Gaussian, Inc.),
 the Gaussian(R) 03 system (copyright 2003, Gaussian, Inc.),
 the Gaussian(R) 98 system (copyright 1998, Gaussian, Inc.),
 the Gaussian(R) 94 system (copyright 1995, Gaussian, Inc.),
 the Gaussian 92(TM) system (copyright 1992, Gaussian, Inc.),
 the Gaussian 90(TM) system (copyright 1990, Gaussian, Inc.),
 the Gaussian 88(TM) system (copyright 1988, Gaussian, Inc.),
 the Gaussian 86(TM) system (copyright 1986, Carnegie Mellon
 University), and the Gaussian 82(TM) system (copyright 1983,
 Carnegie Mellon University). Gaussian is a federally registered
 trademark of Gaussian, Inc.
  
 This software contains proprietary and confidential information,
 including trade secrets, belonging to Gaussian, Inc.
  
 This software is provided under written license and may be
 used, copied, transmitted, or stored only in accord with that
 written license.
  
 The following legend is applicable only to US Government
 contracts under FAR:
  
                    RESTRICTED RIGHTS LEGEND
  
 Use, reproduction and disclosure by the US Government is
 subject to restrictions as set forth in subparagraphs (a)
 and (c) of the Commercial Computer Software - Restricted
 Rights clause in FAR 52.227-19.
  
 Gaussian, Inc.
 340 Quinnipiac St., Bldg. 40, Wallingford CT 06492
  
  
 ---------------------------------------------------------------
 Warning -- This program may not be used in any manner that
 competes with the business of Gaussian, Inc. or will provide
 assistance to any competitor of Gaussian, Inc.  The licensee
 of this program is prohibited from giving any competitor of
 Gaussian, Inc. access to this program.  By using this program,
 the user acknowledges that Gaussian, Inc. is engaged in the
 business of creating and licensing software in the field of
 computational chemistry and represents and warrants to the
 licensee that it is not a competitor of Gaussian, Inc. and that
 it will not use this program in any manner prohibited above.
 ---------------------------------------------------------------
  

 Cite this work as:
 Gaussian 16, Revision C.02,
 M. J. Frisch, G. W. Trucks, H. B. Schlegel, G. E. Scuseria, 
 M. A. Robb, J. R. Cheeseman, G. Scalmani, V. Barone, 
 G. A. Petersson, H. Nakatsuji, X. Li, M. Caricato, A. V. Marenich, 
 J. Bloino, B. G. Janesko, R. Gomperts, B. Mennucci, H. P. Hratchian, 
 J. V. Ortiz, A. F. Izmaylov, J. L. Sonnenberg, D. Williams-Young, 
 F. Ding, F. Lipparini, F. Egidi, J. Goings, B. Peng, A. Petrone, 
 T. Henderson, D. Ranasinghe, V. G. Zakrzewski, J. Gao, N. Rega, 
 G. Zheng, W. Liang, M. Hada, M. Ehara, K. Toyota, R. Fukuda, 
 J. Hasegawa, M. Ishida, T. Nakajima, Y. Honda, O. Kitao, H. Nakai, 
 T. Vreven, K. Throssell, J. A. Montgomery, Jr., J. E. Peralta, 
 F. Ogliaro, M. J. Bearpark, J. J. Heyd, E. N. Brothers, K. N. Kudin, 
 V. N. Staroverov, T. A. Keith, R. Kobayashi, J. Normand, 
 K. Raghavachari, A. P. Rendell, J. C. Burant, S. S. Iyengar, 
 J. Tomasi, M. Cossi, J. M. Millam, M. Klene, C. Adamo, R. Cammi, 
 J. W. Ochterski, R. L. Martin, K. Morokuma, O. Farkas, 
 J. B. Foresman, and D. J. Fox, Gaussian, Inc., Wallingford CT, 2019.
 
 ******************************************
 Gaussian 16:  AS64L-G16RevC.02  7-Dec-2021
                11-Apr-2024 
 ******************************************
 %nprocshared=128
 Will use up to  128 processors via shared memory.
 %mem=30GB
 %chk=no2_benzopiperidine_chelpg.chk
 ----------------------------------------------------------------------
 # wb97xd/genecp scrf=(solvent=toluene,pcm) nosymm pop=(chelpg) scfcyc=
 300
 ----------------------------------------------------------------------
 1/38=1,172=1/1;
 2/12=2,15=1,17=6,18=5,40=1/2;
 3/5=7,11=2,16=1,17=8,25=1,30=1,70=2201,72=13,74=-58/1,2,3;
 4//1;
 5/5=2,7=300,38=5,53=13/2;
 6/7=2,8=2,9=2,10=2,15=8,20=3,28=1/1,2;
 99/5=1,9=1/99;
 --------------------------
 no2_benzopiperidine_chelpg
 --------------------------
 Symbolic Z-matrix:
 Charge =  0 Multiplicity = 1
 C                    -0.57973   0.99995   0.79447 
 C                     0.7914    1.09558   0.90293 
 C                     1.49357   2.18109   0.33327 
 C                     0.7655    3.23924  -0.27602 
 C                    -0.61902   3.0989   -0.42106 
 C                    -1.27246   1.9959    0.10601 
 H                    -1.10754   0.1552    1.21855 
 H                     1.33856   0.29748   1.39292 
 H                    -1.19688   3.87234  -0.90877 
 H                    -2.34965   1.92412   0.00164 
 B                     2.97119   2.03087   0.14939 
 C                     0.81526   5.17657  -1.74484 
 C                     1.99719   5.22043   0.38703 
 C                     1.81173   6.16093  -2.345 
 C                     2.98538   6.25165  -0.14197 
 C                     2.37146   7.08314  -1.26536 
 H                     1.31039   6.7357   -3.12844 
 H                     2.62546   5.59999  -2.81642 
 H                     3.29611   6.8892    0.69037 
 H                     3.87689   5.7376   -0.50946 
 H                     3.11752   7.76132  -1.68704 
 H                     1.5613    7.70593  -0.86475 
 N                     1.45339   4.37784  -0.6983 
 H                     2.47644   4.58169   1.12961 
 H                     1.15904   5.73406   0.88833 
 H                    -0.04375   5.73966  -1.34071 
 H                     0.44284   4.4977   -2.51433 
 N                     3.78184   0.98078   0.91604 
 N                     3.85597   2.74784  -0.87232 
 O                     4.68689   3.5293   -0.44269 
 O                     3.90673  -0.12643   0.42525 
 O                     3.71132   2.44608  -2.0407 
 O                     4.24579   1.33548   1.98449 
 
                          Input orientation:                          
 ---------------------------------------------------------------------
 Center     Atomic      Atomic             Coordinates (Angstroms)
 Number     Number       Type             X           Y           Z
 ---------------------------------------------------------------------
      1          6           0       -0.579731    0.999954    0.794473
      2          6           0        0.791400    1.095581    0.902932
      3          6           0        1.493572    2.181086    0.333265
      4          6           0        0.765503    3.239239   -0.276022
      5          6           0       -0.619023    3.098900   -0.421061
      6          6           0       -1.272458    1.995902    0.106006
      7          1           0       -1.107539    0.155196    1.218553
      8          1           0        1.338557    0.297478    1.392916
      9          1           0       -1.196883    3.872339   -0.908768
     10          1           0       -2.349649    1.924121    0.001643
     11          5           0        2.971191    2.030874    0.149391
     12          6           0        0.815261    5.176572   -1.744838
     13          6           0        1.997186    5.220428    0.387029
     14          6           0        1.811730    6.160934   -2.344997
     15          6           0        2.985379    6.251654   -0.141971
     16          6           0        2.371461    7.083137   -1.265362
     17          1           0        1.310394    6.735699   -3.128441
     18          1           0        2.625456    5.599986   -2.816422
     19          1           0        3.296107    6.889202    0.690367
     20          1           0        3.876893    5.737603   -0.509463
     21          1           0        3.117516    7.761319   -1.687039
     22          1           0        1.561302    7.705934   -0.864746
     23          7           0        1.453392    4.377838   -0.698297
     24          1           0        2.476436    4.581687    1.129611
     25          1           0        1.159036    5.734058    0.888333
     26          1           0       -0.043753    5.739663   -1.340710
     27          1           0        0.442835    4.497701   -2.514331
     28          7           0        3.781836    0.980777    0.916043
     29          7           0        3.855973    2.747840   -0.872323
     30          8           0        4.686891    3.529295   -0.442692
     31          8           0        3.906733   -0.126432    0.425245
     32          8           0        3.711324    2.446078   -2.040704
     33          8           0        4.245793    1.335484    1.984492
 ---------------------------------------------------------------------
                    Distance matrix (angstroms):
                    1          2          3          4          5
     1  C    0.000000
     2  C    1.378734   0.000000
     3  C    2.430303   1.412759   0.000000
     4  C    2.823121   2.446604   1.421620   0.000000
     5  C    2.425828   2.784877   2.423726   1.399158   0.000000
     6  C    1.394909   2.388552   2.781521   2.417668   1.386139
     7  H    1.082609   2.142407   3.413758   3.905555   3.404758
     8  H    2.128717   1.084635   2.166765   3.430409   3.869186
     9  H    3.395954   3.865994   3.411969   2.156882   1.081660
    10  H    2.148319   3.371200   3.866051   3.392758   2.133975
    11  B    3.753395   2.488792   1.496573   2.550722   3.788896
    12  C    5.083133   4.864745   3.708309   2.431698   2.850663
    13  C    4.961745   4.328330   3.081253   2.425240   3.463876
    14  C    6.497005   6.103107   4.807650   3.729819   4.357309
    15  C    6.416174   5.700040   4.361291   3.744391   4.796818
    16  C    7.068067   6.561167   5.230335   4.281757   5.052720
    17  H    7.201430   6.952140   5.723763   4.545155   4.927359
    18  H    6.668739   6.122664   4.784409   3.935249   4.745506
    19  H    7.050972   6.315440   5.054009   4.545338   5.561466
    20  H    6.633782   5.750087   4.363396   3.997132   5.213811
    21  H    8.095900   7.520028   6.152871   5.288870   6.107583
    22  H    7.232372   6.885797   5.653650   4.575069   5.116193
    23  N    4.215691   3.711520   2.427232   1.395677   2.451009
    24  H    4.720306   3.878616   2.713498   2.589452   3.766312
    25  H    5.044191   4.653046   3.611596   2.781135   3.438032
    26  H    5.226004   5.224836   4.222444   2.835591   2.854876
    27  H    4.922201   4.834626   3.818319   2.588024   2.732392
    28  N    4.363303   2.992668   2.648872   3.952206   5.063778
    29  N    5.050622   3.908081   2.712119   3.185601   4.511371
    30  O    5.972056   4.786284   3.552051   3.935631   5.323385
    31  O    4.640413   3.380355   3.340127   4.656913   5.621518
    32  O    5.342533   4.360595   3.259505   3.524354   4.669189
    33  O    4.981406   3.627693   3.319083   4.565810   5.706379
                    6          7          8          9         10
     6  C    0.000000
     7  H    2.157118   0.000000
     8  H    3.370190   2.456427   0.000000
     9  H    2.134594   4.283763   4.950337   0.000000
    10  H    1.084613   2.480484   4.264325   2.439933   0.000000
    11  B    4.244015   4.614901   2.686356   4.677984   5.323961
    12  C    4.230940   6.139468   5.824508   2.539441   4.862642
    13  C    4.600773   5.998944   5.067646   3.701150   5.468925
    14  C    5.732986   7.569010   6.969649   4.043782   6.385482
    15  C    6.025122   7.467918   6.365541   4.872416   6.871004
    16  C    6.406150   8.140617   7.360605   4.813467   7.107013
    17  H    6.292730   8.248986   7.867284   4.405930   6.807689
    18  H    6.060012   7.737055   6.891388   4.608056   6.797437
    19  H    6.719944   8.063369   6.912048   5.643195   7.549896
    20  H    6.394915   7.680747   6.297393   5.420503   7.319406
    21  H    7.465046   9.173149   8.267995   5.860368   8.174009
    22  H    6.448025   8.275052   7.748024   4.722920   7.033884
    23  N    3.708205   5.297489   4.586469   2.706249   4.579712
    24  H    4.667789   5.696193   4.440557   4.260450   5.623706
    25  H    4.527473   6.030764   5.462896   3.499418   5.254780
    26  H    4.197434   6.234400   6.245068   2.236779   4.655903
    27  H    4.008415   5.932574   5.806098   2.378568   4.555371
    28  N    5.218479   4.967805   2.581456   6.039761   6.270657
    29  N    5.274784   5.977459   4.180068   5.176599   6.320765
    30  O    6.177880   6.907945   5.002543   5.912166   7.230969
    31  O    5.606267   5.084444   2.776979   6.619415   6.597463
    32  O    5.445099   6.252387   4.694279   5.235074   6.417088
    33  O    5.866511   5.535152   3.143158   6.665531   6.912166
                   11         12         13         14         15
    11  B    0.000000
    12  C    4.258116   0.000000
    13  C    3.343413   2.437976   0.000000
    14  C    4.962229   1.523847   2.895326   0.000000
    15  C    4.230848   2.904203   1.523087   2.497800   0.000000
    16  C    5.280773   2.507318   2.517968   1.526227   1.526521
    17  H    5.969741   2.142520   3.889249   1.093379   3.458161
    18  H    4.653401   2.145781   3.286470   1.095013   2.776131
    19  H    4.899140   3.875296   2.136356   3.456470   1.093529
    20  H    3.872238   3.348805   2.145802   2.795227   1.092747
    21  H    6.019293   3.461883   3.465981   2.167768   2.164205
    22  H    5.934860   2.780074   2.816856   2.154271   2.159937
    23  N    2.920707   1.463023   1.477702   2.453458   2.483479
    24  H    2.777096   3.372810   1.090458   3.874114   2.159799
    25  H    4.188498   2.713404   1.103457   3.326057   2.159852
    26  H    5.006536   1.103764   2.723990   2.151483   3.297689
    27  H    4.424165   1.091644   3.369901   2.160762   3.894737
    28  N    1.532189   5.786670   4.630278   6.430375   5.434692
    29  N    1.529960   3.988227   3.339872   4.242276   3.683485
    30  O    2.353605   4.404387   3.283730   4.337146   3.224409
    31  O    2.367552   6.510631   5.677741   7.182914   6.469205
    32  O    2.348767   3.991280   4.065609   4.183444   4.314463
    33  O    2.340037   6.358491   4.764547   6.924890   5.502655
                   16         17         18         19         20
    16  C    0.000000
    17  H    2.172013   0.000000
    18  H    2.161027   1.765386   0.000000
    19  H    2.171971   4.306961   3.795974   0.000000
    20  H    2.155962   3.800284   2.628135   1.761557   0.000000
    21  H    1.092859   2.528878   2.487768   2.538610   2.461456
    22  H    1.097601   2.475606   3.062104   2.468801   3.059823
    23  N    2.912569   3.389035   2.711795   3.410416   2.785314
    24  H    3.464703   4.912273   4.078028   2.487855   2.446219
    25  H    2.815740   4.142544   3.986674   2.437339   3.056238
    26  H    2.764753   2.453932   3.053181   4.074479   4.007798
    27  H    3.458902   2.477584   2.463762   4.912283   4.165286
    28  N    6.632231   7.455535   6.050256   5.932651   4.966739
    29  N    4.599245   5.241475   3.664482   4.461651   3.011775
    30  O    4.320624   5.375408   3.764554   3.808816   2.353121
    31  O    7.562612   8.152208   6.703875   7.047147   5.938137
    32  O    4.888630   5.034728   3.424614   5.231874   3.634040
    33  O    6.863686   7.995059   6.622707   5.781042   5.072923
                   21         22         23         24         25
    21  H    0.000000
    22  H    1.760976   0.000000
    23  N    3.898059   3.334003   0.000000
    24  H    4.295877   3.817833   2.104619   0.000000
    25  H    3.818111   2.668970   2.107931   1.766838   0.000000
    26  H    3.768376   2.582434   2.123371   3.714128   2.532857
    27  H    4.299946   3.776885   2.081723   4.173835   3.690480
    28  N    7.293360   7.302720   4.423547   3.836174   5.428953
    29  N    5.132646   5.463357   2.908535   3.045301   4.392138
    30  O    4.682026   5.233713   3.352741   2.909601   4.367879
    31  O    8.203732   8.277142   5.250683   4.970741   6.489194
    32  O    5.359988   5.802720   3.260676   4.017048   5.089621
    33  O    7.486288   7.477117   4.924508   3.794638   5.484258
                   26         27         28         29         30
    26  H    0.000000
    27  H    1.776689   0.000000
    28  N    6.509613   5.940130   0.000000
    29  N    4.937434   4.172255   2.515206   0.000000
    30  O    5.298222   4.820945   3.026587   1.218885   0.000000
    31  O    7.289445   6.482461   1.217536   3.153997   3.837486
    32  O    5.043639   3.887994   3.300671   1.215359   2.163038
    33  O    6.989561   6.685919   1.217644   3.210623   3.301302
                   31         32         33
    31  O    0.000000
    32  O    3.568879   0.000000
    33  O    2.164119   4.209665   0.000000
 Symmetry turned off by external request.
 Stoichiometry    C11H14BN3O4
 Framework group  C1[X(C11H14BN3O4)]
 Deg. of freedom    93
 Full point group                 C1      NOp   1
 Rotational constants (GHZ):           0.5105722           0.3493898           0.2447834
 General basis read from cards:  (5D, 7F)
 ======================================================================================================
                                       Pseudopotential Parameters
 ======================================================================================================
  Center     Atomic      Valence      Angular      Power
  Number     Number     Electrons     Momentum     of R      Exponent        Coefficient   SO-Coeffient
 ======================================================================================================
    1          6
                                   No pseudopotential on this center.
    2          6
                                   No pseudopotential on this center.
    3          6
                                   No pseudopotential on this center.
    4          6
                                   No pseudopotential on this center.
    5          6
                                   No pseudopotential on this center.
    6          6
                                   No pseudopotential on this center.
    7          1
                                   No pseudopotential on this center.
    8          1
                                   No pseudopotential on this center.
    9          1
                                   No pseudopotential on this center.
   10          1
                                   No pseudopotential on this center.
   11          5
                                   No pseudopotential on this center.
   12          6
                                   No pseudopotential on this center.
   13          6
                                   No pseudopotential on this center.
   14          6
                                   No pseudopotential on this center.
   15          6
                                   No pseudopotential on this center.
   16          6
                                   No pseudopotential on this center.
   17          1
                                   No pseudopotential on this center.
   18          1
                                   No pseudopotential on this center.
   19          1
                                   No pseudopotential on this center.
   20          1
                                   No pseudopotential on this center.
   21          1
                                   No pseudopotential on this center.
   22          1
                                   No pseudopotential on this center.
   23          7
                                   No pseudopotential on this center.
   24          1
                                   No pseudopotential on this center.
   25          1
                                   No pseudopotential on this center.
   26          1
                                   No pseudopotential on this center.
   27          1
                                   No pseudopotential on this center.
   28          7
                                   No pseudopotential on this center.
   29          7
                                   No pseudopotential on this center.
   30          8
                                   No pseudopotential on this center.
   31          8
                                   No pseudopotential on this center.
   32          8
                                   No pseudopotential on this center.
   33          8
                                   No pseudopotential on this center.
 ======================================================================================================
   516 basis functions,   810 primitive gaussians,   535 cartesian basis functions
    69 alpha electrons       69 beta electrons
       nuclear repulsion energy      1485.1443862928 Hartrees.
 NAtoms=   33 NActive=   33 NUniq=   33 SFac= 1.00D+00 NAtFMM=   60 NAOKFM=F Big=F
 Integral buffers will be    131072 words long.
 Raffenetti 2 integral format.
 Two-electron integral symmetry is turned off.
 Nuclear repulsion after empirical dispersion term =     1485.1157938023 Hartrees.
 ------------------------------------------------------------------------------
 Polarizable Continuum Model (PCM)
 =================================
 Model                : PCM.
 Atomic radii         : UFF (Universal Force Field).
 Polarization charges : Total charges.
 Charge compensation  : None.
 Solution method      : On-the-fly selection.
 Cavity type          : Scaled VdW (van der Waals Surface) (Alpha=1.100).
 Cavity algorithm     : GePol (No added spheres)
                        Default sphere list used, NSphG=   33.
                        Lebedev-Laikov grids with approx.  5.0 points / Ang**2.
                        Smoothing algorithm: York/Karplus (Gamma=1.0000).
                        Polarization charges: spherical gaussians, with
                                              point-specific exponents (IZeta= 3).
                        Self-potential: point-specific (ISelfS= 7).
                        Self-field    : sphere-specific E.n sum rule (ISelfD= 2).
 Solvent              : Toluene, Eps=   2.374100 Eps(inf)=   2.238315
 ------------------------------------------------------------------------------
 One-electron integrals computed using PRISM.
   1 Symmetry operations used in ECPInt.
 ECPInt:  NShTT=   17020 NPrTT=   60069 LenC2=   15795 LenP2D=   38479.
 LDataN:  DoStor=T MaxTD1= 4 Len=   56
 Number of processors reduced to  90 by ecpmxn.
 NBasis=   516 RedAO= T EigKep=  1.84D-06  NBF=   516
 NBsUse=   514 1.00D-06 EigRej=  4.61D-07 NBFU=   514
 ExpMin= 3.15D-02 ExpMax= 8.59D+03 ExpMxC= 1.30D+03 IAcc=3 IRadAn=         5 AccDes= 0.00D+00
 Harris functional with IExCor= 4639 and IRadAn=       5 diagonalized for initial guess.
 HarFok:  IExCor= 4639 AccDes= 0.00D+00 IRadAn=         5 IDoV= 1 UseB2=F ITyADJ=14
 ICtDFT=  3500011 ScaDFX=  1.000000  1.000000  1.000000  1.000000
 FoFCou: FMM=F IPFlag=           0 FMFlag=      100000 FMFlg1=           0
         NFxFlg=           0 DoJE=T BraDBF=F KetDBF=T FulRan=T
         wScrn=  0.000000 ICntrl=       500 IOpCl=  0 I1Cent=   200000004 NGrid=           0
         NMat0=    1 NMatS0=      1 NMatT0=    0 NMatD0=    1 NMtDS0=    0 NMtDT0=    0
 Symmetry not used in FoFCou.
 Requested convergence on RMS density matrix=1.00D-08 within 300 cycles.
 Requested convergence on MAX density matrix=1.00D-06.
 Requested convergence on             energy=1.00D-06.
 No special actions if energy rises.
 Inv3:  Mode=1 IEnd=    18051627.
 Iteration    1 A*A^-1 deviation from unit magnitude is 3.66D-15 for   2445.
 Iteration    1 A*A^-1 deviation from orthogonality  is 2.86D-15 for   2333    758.
 Iteration    1 A^-1*A deviation from unit magnitude is 3.66D-15 for   2445.
 Iteration    1 A^-1*A deviation from orthogonality  is 2.07D-15 for   2441    854.
 Error on total polarization charges =  0.01185
 SCF Done:  E(RwB97XD) =  -917.408597760     A.U. after   19 cycles
            NFock= 19  Conv=0.37D-08     -V/T= 2.0037

 **********************************************************************

            Population analysis using the SCF Density.

 **********************************************************************

 Alpha  occ. eigenvalues --  -19.31355 -19.31268 -19.30932 -19.30860 -14.68181
 Alpha  occ. eigenvalues --  -14.68000 -14.46393 -10.36576 -10.32913 -10.32622
 Alpha  occ. eigenvalues --  -10.32566 -10.32251 -10.31370 -10.31189 -10.30934
 Alpha  occ. eigenvalues --  -10.28531 -10.28313 -10.28217  -6.96334  -1.36835
 Alpha  occ. eigenvalues --   -1.36049  -1.19312  -1.18872  -1.07568  -0.98559
 Alpha  occ. eigenvalues --   -0.91760  -0.89789  -0.87146  -0.86546  -0.85565
 Alpha  occ. eigenvalues --   -0.80392  -0.76821  -0.74962  -0.72355  -0.71117
 Alpha  occ. eigenvalues --   -0.68880  -0.67209  -0.66944  -0.65568  -0.64031
 Alpha  occ. eigenvalues --   -0.63398  -0.62998  -0.62736  -0.59909  -0.58475
 Alpha  occ. eigenvalues --   -0.56914  -0.56076  -0.55032  -0.53481  -0.52720
 Alpha  occ. eigenvalues --   -0.51723  -0.50953  -0.49579  -0.47478  -0.46946
 Alpha  occ. eigenvalues --   -0.46092  -0.44199  -0.43514  -0.42799  -0.42673
 Alpha  occ. eigenvalues --   -0.41839  -0.41547  -0.41136  -0.40890  -0.40753
 Alpha  occ. eigenvalues --   -0.39809  -0.37762  -0.36744  -0.31175
 Alpha virt. eigenvalues --   -0.04513  -0.03481  -0.01152   0.03278   0.03653
 Alpha virt. eigenvalues --    0.04522   0.05130   0.05508   0.06281   0.06381
 Alpha virt. eigenvalues --    0.06792   0.07598   0.07930   0.08242   0.08646
 Alpha virt. eigenvalues --    0.08675   0.09700   0.10362   0.10673   0.11272
 Alpha virt. eigenvalues --    0.11809   0.11881   0.13027   0.13453   0.14688
 Alpha virt. eigenvalues --    0.14810   0.15343   0.15714   0.16145   0.16353
 Alpha virt. eigenvalues --    0.16582   0.16765   0.17033   0.17213   0.17814
 Alpha virt. eigenvalues --    0.18167   0.18439   0.18587   0.18804   0.19057
 Alpha virt. eigenvalues --    0.19446   0.19831   0.20014   0.20514   0.20700
 Alpha virt. eigenvalues --    0.21043   0.21703   0.21784   0.22030   0.22533
 Alpha virt. eigenvalues --    0.22714   0.22858   0.23333   0.23684   0.23922
 Alpha virt. eigenvalues --    0.24071   0.24500   0.24592   0.24890   0.25230
 Alpha virt. eigenvalues --    0.25646   0.25842   0.26508   0.26681   0.27010
 Alpha virt. eigenvalues --    0.27632   0.28045   0.29057   0.29208   0.29480
 Alpha virt. eigenvalues --    0.29801   0.30034   0.30237   0.30674   0.31095
 Alpha virt. eigenvalues --    0.31489   0.32198   0.32372   0.32721   0.32894
 Alpha virt. eigenvalues --    0.33120   0.33891   0.34216   0.34692   0.35119
 Alpha virt. eigenvalues --    0.35688   0.35971   0.36132   0.36478   0.36898
 Alpha virt. eigenvalues --    0.37322   0.37834   0.38390   0.38484   0.38805
 Alpha virt. eigenvalues --    0.39348   0.39556   0.40015   0.40633   0.40963
 Alpha virt. eigenvalues --    0.41256   0.41388   0.41844   0.42195   0.42674
 Alpha virt. eigenvalues --    0.42781   0.43646   0.43845   0.44592   0.45328
 Alpha virt. eigenvalues --    0.45865   0.46147   0.47269   0.47677   0.48006
 Alpha virt. eigenvalues --    0.48328   0.49011   0.49498   0.49951   0.50333
 Alpha virt. eigenvalues --    0.52075   0.53251   0.54451   0.54739   0.56951
 Alpha virt. eigenvalues --    0.57212   0.57568   0.58662   0.59381   0.59537
 Alpha virt. eigenvalues --    0.59894   0.60550   0.62014   0.62598   0.63315
 Alpha virt. eigenvalues --    0.64206   0.64434   0.64898   0.65688   0.66766
 Alpha virt. eigenvalues --    0.67224   0.68263   0.68991   0.69531   0.71344
 Alpha virt. eigenvalues --    0.71509   0.72775   0.73220   0.73991   0.74414
 Alpha virt. eigenvalues --    0.75275   0.75798   0.76700   0.77184   0.78284
 Alpha virt. eigenvalues --    0.79344   0.79463   0.80417   0.81477   0.82217
 Alpha virt. eigenvalues --    0.83159   0.83650   0.84275   0.84685   0.84818
 Alpha virt. eigenvalues --    0.85682   0.86225   0.86860   0.87269   0.87546
 Alpha virt. eigenvalues --    0.89282   0.91002   0.91496   0.92372   0.92660
 Alpha virt. eigenvalues --    0.93485   0.94349   0.96135   0.96602   0.97731
 Alpha virt. eigenvalues --    0.98350   0.98955   0.99312   0.99665   1.00416
 Alpha virt. eigenvalues --    1.01468   1.02666   1.03497   1.05353   1.05972
 Alpha virt. eigenvalues --    1.07524   1.08157   1.08628   1.11028   1.12119
 Alpha virt. eigenvalues --    1.12597   1.14327   1.14661   1.16181   1.16963
 Alpha virt. eigenvalues --    1.17737   1.18111   1.19311   1.19825   1.21826
 Alpha virt. eigenvalues --    1.22928   1.22973   1.24484   1.24605   1.25856
 Alpha virt. eigenvalues --    1.27336   1.28447   1.29326   1.29768   1.31170
 Alpha virt. eigenvalues --    1.31940   1.32338   1.34859   1.35588   1.37180
 Alpha virt. eigenvalues --    1.38034   1.38542   1.41809   1.43904   1.45427
 Alpha virt. eigenvalues --    1.47294   1.48016   1.49956   1.51397   1.53675
 Alpha virt. eigenvalues --    1.55838   1.56716   1.59314   1.60229   1.61469
 Alpha virt. eigenvalues --    1.63149   1.63562   1.64341   1.65480   1.67131
 Alpha virt. eigenvalues --    1.68212   1.68858   1.69169   1.69854   1.71726
 Alpha virt. eigenvalues --    1.72044   1.72627   1.73052   1.74248   1.75817
 Alpha virt. eigenvalues --    1.76012   1.76810   1.77816   1.77873   1.79926
 Alpha virt. eigenvalues --    1.80632   1.81522   1.81964   1.82277   1.82822
 Alpha virt. eigenvalues --    1.84206   1.84377   1.85890   1.86647   1.87094
 Alpha virt. eigenvalues --    1.89397   1.90032   1.90249   1.91044   1.92186
 Alpha virt. eigenvalues --    1.93731   1.94034   1.95817   1.96915   1.97753
 Alpha virt. eigenvalues --    1.99247   2.00184   2.00869   2.01855   2.04182
 Alpha virt. eigenvalues --    2.05453   2.06582   2.07183   2.10556   2.12574
 Alpha virt. eigenvalues --    2.13575   2.14647   2.15572   2.18096   2.19847
 Alpha virt. eigenvalues --    2.21999   2.24064   2.26628   2.27028   2.28085
 Alpha virt. eigenvalues --    2.29990   2.30673   2.32635   2.34397   2.35157
 Alpha virt. eigenvalues --    2.35722   2.37548   2.38110   2.39892   2.40626
 Alpha virt. eigenvalues --    2.41734   2.41888   2.42913   2.43835   2.44569
 Alpha virt. eigenvalues --    2.48158   2.49289   2.52448   2.54670   2.55222
 Alpha virt. eigenvalues --    2.57874   2.58454   2.60670   2.62586   2.64942
 Alpha virt. eigenvalues --    2.66570   2.67883   2.69841   2.71996   2.73779
 Alpha virt. eigenvalues --    2.75900   2.76569   2.78024   2.78493   2.79103
 Alpha virt. eigenvalues --    2.80605   2.81483   2.82580   2.84087   2.84447
 Alpha virt. eigenvalues --    2.84948   2.86169   2.86768   2.87556   2.87965
 Alpha virt. eigenvalues --    2.88908   2.89843   2.90426   2.91205   2.92284
 Alpha virt. eigenvalues --    2.93625   2.94525   2.95029   2.95617   2.96781
 Alpha virt. eigenvalues --    2.97190   2.97876   2.99503   2.99885   3.02582
 Alpha virt. eigenvalues --    3.02801   3.05851   3.06428   3.08305   3.08487
 Alpha virt. eigenvalues --    3.11160   3.15489   3.18434   3.19681   3.21055
 Alpha virt. eigenvalues --    3.22302   3.23759   3.25074   3.32338   3.32689
 Alpha virt. eigenvalues --    3.34286   3.35952   3.44319   3.45505   3.46139
 Alpha virt. eigenvalues --    3.47069   3.49279   3.52446   3.54035   3.56340
 Alpha virt. eigenvalues --    3.58019   3.59773   3.64299   3.64858   3.65758
 Alpha virt. eigenvalues --    3.65914   3.67895   3.82772   3.86823   3.88233
 Alpha virt. eigenvalues --    3.88822   3.89808   3.92996   3.94236   3.97559
 Alpha virt. eigenvalues --    4.00278   4.03608   4.06126   4.09387   4.13402
 Alpha virt. eigenvalues --    4.20311   4.23468   4.26156   4.28221   4.33502
 Alpha virt. eigenvalues --    4.44318   4.46767   4.50297   4.61819   4.62682
 Alpha virt. eigenvalues --    4.65064   4.91685   4.95751   5.09971   5.12212
 Alpha virt. eigenvalues --    5.12918   5.16364   5.17067   5.19531   5.22835
 Alpha virt. eigenvalues --    5.28915   5.29884   5.70636   5.73843   6.34600
 Alpha virt. eigenvalues --    6.36608  14.77835  23.75940  23.98183  24.06172
 Alpha virt. eigenvalues --   24.06716  24.07000  24.08887  24.10421  24.10610
 Alpha virt. eigenvalues --   24.14900  24.21790  24.30326  35.51089  35.55877
 Alpha virt. eigenvalues --   35.74695  50.01645  50.03020  50.10398  50.12910
          Condensed to atoms (all electrons):
               1          2          3          4          5          6
     1  C   11.737519  -1.104011  -4.629245   2.822095  -1.118712  -1.399716
     2  C   -1.104011  18.555858  -6.683116  -8.015726   3.896078  -0.007545
     3  C   -4.629245  -6.683116  16.165841   0.160805  -1.281672   2.554927
     4  C    2.822095  -8.015726   0.160805  24.694764  -6.864192  -6.290662
     5  C   -1.118712   3.896078  -1.281672  -6.864192  11.519805   0.398571
     6  C   -1.399716  -0.007545   2.554927  -6.290662   0.398571  11.612279
     7  H    0.551854  -0.140093  -0.007584   0.145402  -0.055906  -0.151472
     8  H   -0.146412   0.874817  -0.371460  -0.207001   0.137043   0.001969
     9  H    0.003580   0.062077  -0.057546   0.072981   0.437357  -0.214843
    10  H   -0.103427  -0.028803   0.061805  -0.022904  -0.044977   0.474063
    11  B   -0.474700  -0.274780   1.134101  -0.518383   0.203576   0.304581
    12  C    0.055613   0.032937  -0.227259  -0.323777   0.109370  -0.409227
    13  C    0.005166  -0.668368  -0.248039   0.655972  -0.570299  -0.154597
    14  C    0.068979   0.089280  -0.126371   0.497140  -0.545606  -0.346415
    15  C    0.085589   0.214082  -0.045691  -0.113840  -0.075312  -0.151804
    16  C   -0.022942   0.003565  -0.021812   0.014153   0.023029   0.030720
    17  H    0.000559  -0.001669  -0.003515   0.016916  -0.003778  -0.001169
    18  H   -0.003213   0.004742   0.014873  -0.096059   0.029660   0.011023
    19  H    0.003607   0.004767   0.005057  -0.002020   0.002250  -0.003932
    20  H   -0.005080  -0.021761   0.000748   0.030586  -0.013070  -0.002107
    21  H    0.000159   0.001426  -0.000594   0.018281  -0.004199  -0.001055
    22  H   -0.000547   0.002634   0.004135  -0.039625   0.001521  -0.002371
    23  N   -0.036347  -0.101285  -0.014693  -1.279357   0.203848   0.182795
    24  H    0.014536  -0.003433   0.009946   0.010405  -0.036057  -0.022001
    25  H    0.012995  -0.084986  -0.014790   0.237123  -0.117967  -0.036562
    26  H    0.000225   0.005937   0.005434  -0.163178   0.076033   0.031532
    27  H    0.007461  -0.008113  -0.002646   0.089778  -0.034258   0.003206
    28  N   -0.177838  -0.209700   0.350996   0.062011   0.051910  -0.016867
    29  N    0.165427  -0.514883  -0.299086   0.584974  -0.420357  -0.016926
    30  O    0.012313   0.032889  -0.018800   0.055182  -0.001060  -0.015172
    31  O    0.070509   0.266708  -0.317552  -0.034399   0.002879  -0.008383
    32  O   -0.000315   0.203421   0.054761  -0.188218   0.124321   0.034043
    33  O    0.055228   0.029632  -0.039694  -0.024914  -0.000049  -0.002676
               7          8          9         10         11         12
     1  C    0.551854  -0.146412   0.003580  -0.103427  -0.474700   0.055613
     2  C   -0.140093   0.874817   0.062077  -0.028803  -0.274780   0.032937
     3  C   -0.007584  -0.371460  -0.057546   0.061805   1.134101  -0.227259
     4  C    0.145402  -0.207001   0.072981  -0.022904  -0.518383  -0.323777
     5  C   -0.055906   0.137043   0.437357  -0.044977   0.203576   0.109370
     6  C   -0.151472   0.001969  -0.214843   0.474063   0.304581  -0.409227
     7  H    0.452459  -0.016076   0.002758  -0.014268  -0.006888  -0.000163
     8  H   -0.016076   0.500255   0.002188   0.000921  -0.024105  -0.000176
     9  H    0.002758   0.002188   0.485250  -0.013743   0.000629   0.040687
    10  H   -0.014268   0.000921  -0.013743   0.443254   0.002156  -0.002068
    11  B   -0.006888  -0.024105   0.000629   0.002156   4.602668  -0.002538
    12  C   -0.000163  -0.000176   0.040687  -0.002068  -0.002538   7.495406
    13  C    0.001534  -0.017214  -0.001472  -0.000949   0.002954  -0.120513
    14  C    0.000820   0.000690  -0.002924  -0.003485  -0.109229  -1.609769
    15  C    0.001810   0.001375   0.003422  -0.003330  -0.078742   0.016706
    16  C   -0.000502   0.000825   0.005133   0.000888   0.029217   0.156916
    17  H    0.000019  -0.000045   0.000870  -0.000086   0.000994   0.031617
    18  H   -0.000122  -0.000314  -0.002154   0.000247  -0.004963  -0.124597
    19  H    0.000101   0.000100   0.000519  -0.000143   0.006005  -0.001429
    20  H   -0.000031  -0.000331  -0.000114   0.000088  -0.014842  -0.004213
    21  H    0.000006   0.000069   0.000137  -0.000018   0.000912  -0.027798
    22  H   -0.000029  -0.000011   0.001206  -0.000003  -0.003477  -0.092499
    23  N   -0.000722  -0.001995  -0.014106  -0.006159   0.029385   0.234707
    24  H   -0.000842   0.001530  -0.004172   0.000762  -0.085694   0.015346
    25  H    0.000912  -0.002236   0.004215  -0.001018  -0.004336  -0.043486
    26  H   -0.000295  -0.000153   0.002397   0.000964   0.001499   0.445277
    27  H    0.000071  -0.000120  -0.013425  -0.000216  -0.006434   0.412684
    28  N    0.000333   0.011001   0.000866   0.000215   0.171896   0.007123
    29  N    0.001055  -0.025444  -0.007786   0.001208  -0.110622   0.088184
    30  O    0.000509  -0.000234   0.001148  -0.000360  -0.044011  -0.036485
    31  O   -0.000776   0.017000   0.000001  -0.000030  -0.142010   0.002791
    32  O   -0.000469   0.003374  -0.002642   0.000279  -0.054976  -0.018057
    33  O    0.000698  -0.019729   0.000130  -0.000038  -0.046306   0.000986
              13         14         15         16         17         18
     1  C    0.005166   0.068979   0.085589  -0.022942   0.000559  -0.003213
     2  C   -0.668368   0.089280   0.214082   0.003565  -0.001669   0.004742
     3  C   -0.248039  -0.126371  -0.045691  -0.021812  -0.003515   0.014873
     4  C    0.655972   0.497140  -0.113840   0.014153   0.016916  -0.096059
     5  C   -0.570299  -0.545606  -0.075312   0.023029  -0.003778   0.029660
     6  C   -0.154597  -0.346415  -0.151804   0.030720  -0.001169   0.011023
     7  H    0.001534   0.000820   0.001810  -0.000502   0.000019  -0.000122
     8  H   -0.017214   0.000690   0.001375   0.000825  -0.000045  -0.000314
     9  H   -0.001472  -0.002924   0.003422   0.005133   0.000870  -0.002154
    10  H   -0.000949  -0.003485  -0.003330   0.000888  -0.000086   0.000247
    11  B    0.002954  -0.109229  -0.078742   0.029217   0.000994  -0.004963
    12  C   -0.120513  -1.609769   0.016706   0.156916   0.031617  -0.124597
    13  C    7.322149   0.020549  -0.980234   0.036911   0.015075   0.017982
    14  C    0.020549   8.353775  -0.078841  -0.411960   0.346099   0.562490
    15  C   -0.980234  -0.078841   7.246726  -0.398924   0.002832  -0.047089
    16  C    0.036911  -0.411960  -0.398924   6.558192  -0.056829  -0.059781
    17  H    0.015075   0.346099   0.002832  -0.056829   0.486344  -0.014383
    18  H    0.017982   0.562490  -0.047089  -0.059781  -0.014383   0.489460
    19  H   -0.053422   0.002406   0.446525  -0.069018   0.001321  -0.006206
    20  H   -0.081712   0.011185   0.473690  -0.075864  -0.003144  -0.000107
    21  H   -0.014820  -0.028563  -0.032282   0.433168  -0.009924  -0.000894
    22  H   -0.028375   0.039254  -0.066725   0.503076  -0.004888   0.008814
    23  N    0.229053  -0.076420   0.008386  -0.141040   0.001386   0.039055
    24  H    0.439960   0.058972  -0.025297  -0.027567  -0.000449   0.002691
    25  H    0.508271   0.000827  -0.023968  -0.070018   0.001029  -0.001205
    26  H   -0.012456  -0.045188   0.029449  -0.069325  -0.003887   0.007255
    27  H    0.004154  -0.035502   0.001258   0.006409  -0.007300  -0.009016
    28  N    0.002813   0.001713  -0.027759  -0.003962   0.000156   0.001722
    29  N    0.190130  -0.091530  -0.130573   0.143936  -0.001821  -0.004615
    30  O   -0.065975   0.030267   0.144953  -0.074708   0.000103  -0.016411
    31  O    0.002831   0.000397  -0.001017   0.000190   0.000004   0.000187
    32  O   -0.085580   0.002583  -0.002492  -0.010174   0.000381   0.018840
    33  O    0.000228  -0.001170  -0.003297   0.000657   0.000021  -0.000195
              19         20         21         22         23         24
     1  C    0.003607  -0.005080   0.000159  -0.000547  -0.036347   0.014536
     2  C    0.004767  -0.021761   0.001426   0.002634  -0.101285  -0.003433
     3  C    0.005057   0.000748  -0.000594   0.004135  -0.014693   0.009946
     4  C   -0.002020   0.030586   0.018281  -0.039625  -1.279357   0.010405
     5  C    0.002250  -0.013070  -0.004199   0.001521   0.203848  -0.036057
     6  C   -0.003932  -0.002107  -0.001055  -0.002371   0.182795  -0.022001
     7  H    0.000101  -0.000031   0.000006  -0.000029  -0.000722  -0.000842
     8  H    0.000100  -0.000331   0.000069  -0.000011  -0.001995   0.001530
     9  H    0.000519  -0.000114   0.000137   0.001206  -0.014106  -0.004172
    10  H   -0.000143   0.000088  -0.000018  -0.000003  -0.006159   0.000762
    11  B    0.006005  -0.014842   0.000912  -0.003477   0.029385  -0.085694
    12  C   -0.001429  -0.004213  -0.027798  -0.092499   0.234707   0.015346
    13  C   -0.053422  -0.081712  -0.014820  -0.028375   0.229053   0.439960
    14  C    0.002406   0.011185  -0.028563   0.039254  -0.076420   0.058972
    15  C    0.446525   0.473690  -0.032282  -0.066725   0.008386  -0.025297
    16  C   -0.069018  -0.075864   0.433168   0.503076  -0.141040  -0.027567
    17  H    0.001321  -0.003144  -0.009924  -0.004888   0.001386  -0.000449
    18  H   -0.006206  -0.000107  -0.000894   0.008814   0.039055   0.002691
    19  H    0.494125  -0.021018  -0.007753  -0.008211   0.016406  -0.016512
    20  H   -0.021018   0.523111  -0.002748   0.006212   0.024980   0.005044
    21  H   -0.007753  -0.002748   0.495117  -0.009632  -0.008937  -0.001164
    22  H   -0.008211   0.006212  -0.009632   0.525682   0.024112   0.002671
    23  N    0.016406   0.024980  -0.008937   0.024112   7.746056  -0.044704
    24  H   -0.016512   0.005044  -0.001164   0.002671  -0.044704   0.549933
    25  H    0.001365   0.005789  -0.000780  -0.004088  -0.096274  -0.036277
    26  H    0.000256   0.002843  -0.002566   0.001791  -0.030656  -0.004118
    27  H    0.000927   0.000008   0.000075  -0.003683  -0.076866   0.001268
    28  N   -0.000996   0.004968  -0.000437   0.000430  -0.025951  -0.000332
    29  N   -0.016116   0.001599  -0.001108   0.002389  -0.228401   0.039810
    30  O    0.010304  -0.004038   0.002065  -0.003304   0.020507  -0.035065
    31  O   -0.000113  -0.000004  -0.000014   0.000029   0.001806   0.001358
    32  O   -0.000094  -0.020088   0.000481  -0.000087  -0.057579  -0.002673
    33  O    0.000869  -0.001987   0.000022  -0.000066  -0.001878  -0.021291
              25         26         27         28         29         30
     1  C    0.012995   0.000225   0.007461  -0.177838   0.165427   0.012313
     2  C   -0.084986   0.005937  -0.008113  -0.209700  -0.514883   0.032889
     3  C   -0.014790   0.005434  -0.002646   0.350996  -0.299086  -0.018800
     4  C    0.237123  -0.163178   0.089778   0.062011   0.584974   0.055182
     5  C   -0.117967   0.076033  -0.034258   0.051910  -0.420357  -0.001060
     6  C   -0.036562   0.031532   0.003206  -0.016867  -0.016926  -0.015172
     7  H    0.000912  -0.000295   0.000071   0.000333   0.001055   0.000509
     8  H   -0.002236  -0.000153  -0.000120   0.011001  -0.025444  -0.000234
     9  H    0.004215   0.002397  -0.013425   0.000866  -0.007786   0.001148
    10  H   -0.001018   0.000964  -0.000216   0.000215   0.001208  -0.000360
    11  B   -0.004336   0.001499  -0.006434   0.171896  -0.110622  -0.044011
    12  C   -0.043486   0.445277   0.412684   0.007123   0.088184  -0.036485
    13  C    0.508271  -0.012456   0.004154   0.002813   0.190130  -0.065975
    14  C    0.000827  -0.045188  -0.035502   0.001713  -0.091530   0.030267
    15  C   -0.023968   0.029449   0.001258  -0.027759  -0.130573   0.144953
    16  C   -0.070018  -0.069325   0.006409  -0.003962   0.143936  -0.074708
    17  H    0.001029  -0.003887  -0.007300   0.000156  -0.001821   0.000103
    18  H   -0.001205   0.007255  -0.009016   0.001722  -0.004615  -0.016411
    19  H    0.001365   0.000256   0.000927  -0.000996  -0.016116   0.010304
    20  H    0.005789   0.002843   0.000008   0.004968   0.001599  -0.004038
    21  H   -0.000780  -0.002566   0.000075  -0.000437  -0.001108   0.002065
    22  H   -0.004088   0.001791  -0.003683   0.000430   0.002389  -0.003304
    23  N   -0.096274  -0.030656  -0.076866  -0.025951  -0.228401   0.020507
    24  H   -0.036277  -0.004118   0.001268  -0.000332   0.039810  -0.035065
    25  H    0.532946   0.011218  -0.002125  -0.002337   0.000678   0.009572
    26  H    0.011218   0.561337  -0.029167   0.000021  -0.002177   0.000301
    27  H   -0.002125  -0.029167   0.503627  -0.000124  -0.001078   0.001118
    28  N   -0.002337   0.000021  -0.000124   7.673967  -0.556652  -0.021816
    29  N    0.000678  -0.002177  -0.001078  -0.556652   9.338645  -0.155340
    30  O    0.009572   0.000301   0.001118  -0.021816  -0.155340   8.057869
    31  O   -0.000282   0.000052  -0.000170   0.159581   0.056743  -0.014464
    32  O   -0.004183   0.002335  -0.001948   0.015102  -0.169527  -0.120289
    33  O    0.000324   0.000052  -0.000224   0.097844  -0.051656   0.026760
              31         32         33
     1  C    0.070509  -0.000315   0.055228
     2  C    0.266708   0.203421   0.029632
     3  C   -0.317552   0.054761  -0.039694
     4  C   -0.034399  -0.188218  -0.024914
     5  C    0.002879   0.124321  -0.000049
     6  C   -0.008383   0.034043  -0.002676
     7  H   -0.000776  -0.000469   0.000698
     8  H    0.017000   0.003374  -0.019729
     9  H    0.000001  -0.002642   0.000130
    10  H   -0.000030   0.000279  -0.000038
    11  B   -0.142010  -0.054976  -0.046306
    12  C    0.002791  -0.018057   0.000986
    13  C    0.002831  -0.085580   0.000228
    14  C    0.000397   0.002583  -0.001170
    15  C   -0.001017  -0.002492  -0.003297
    16  C    0.000190  -0.010174   0.000657
    17  H    0.000004   0.000381   0.000021
    18  H    0.000187   0.018840  -0.000195
    19  H   -0.000113  -0.000094   0.000869
    20  H   -0.000004  -0.020088  -0.001987
    21  H   -0.000014   0.000481   0.000022
    22  H    0.000029  -0.000087  -0.000066
    23  N    0.001806  -0.057579  -0.001878
    24  H    0.001358  -0.002673  -0.021291
    25  H   -0.000282  -0.004183   0.000324
    26  H    0.000052   0.002335   0.000052
    27  H   -0.000170  -0.001948  -0.000224
    28  N    0.159581   0.015102   0.097844
    29  N    0.056743  -0.169527  -0.051656
    30  O   -0.014464  -0.120289   0.026760
    31  O    7.900065  -0.006351  -0.119056
    32  O   -0.006351   8.060757   0.013130
    33  O   -0.119056   0.013130   8.017185
 Mulliken charges:
               1
     1  C   -0.450909
     2  C   -0.412577
     3  C   -0.112264
     4  C    0.015689
     5  C   -0.029780
     6  C   -0.384206
     7  H    0.235899
     8  H    0.279899
     9  H    0.207376
    10  H    0.259174
    11  B    0.516463
    12  C   -0.102296
    13  C   -0.351710
    14  C   -0.574453
    15  C   -0.389589
    16  C   -0.432556
    17  H    0.207163
    18  H    0.182285
    19  H    0.210074
    20  H    0.181408
    21  H    0.203370
    22  H    0.143666
    23  N    0.480892
    24  H    0.213413
    25  H    0.219656
    26  H    0.176959
    27  H    0.200372
    28  N   -0.569895
    29  N   -0.809080
    30  O    0.221670
    31  O    0.161491
    32  O    0.211933
    33  O    0.090463
 Sum of Mulliken charges =  -0.00000
 Mulliken charges with hydrogens summed into heavy atoms:
               1
     1  C   -0.215009
     2  C   -0.132678
     3  C   -0.112264
     4  C    0.015689
     5  C    0.177597
     6  C   -0.125032
    11  B    0.516463
    12  C    0.275035
    13  C    0.081360
    14  C   -0.185006
    15  C    0.001893
    16  C   -0.085521
    23  N    0.480892
    28  N   -0.569895
    29  N   -0.809080
    30  O    0.221670
    31  O    0.161491
    32  O    0.211933
    33  O    0.090463
 Electronic spatial extent (au):  <R**2>=          12019.2474
 Charge=              0.0000 electrons
 Dipole moment (field-independent basis, Debye):
    X=             -7.3261    Y=              3.3408    Z=             -0.0430  Tot=              8.0521
 Quadrupole moment (field-independent basis, Debye-Ang):
   XX=           -140.6910   YY=            -88.0437   ZZ=           -117.2114
   XY=             -7.6589   XZ=              0.3250   YZ=             -3.7132
 Traceless Quadrupole moment (field-independent basis, Debye-Ang):
   XX=            -25.3756   YY=             27.2716   ZZ=             -1.8960
   XY=             -7.6589   XZ=              0.3250   YZ=             -3.7132
 Octapole moment (field-independent basis, Debye-Ang**2):
  XXX=           -839.9364  YYY=           -926.4922  ZZZ=             76.9510  XYY=           -230.2815
  XXY=           -407.6506  XXZ=             20.9238  XZZ=           -256.3783  YZZ=           -365.2145
  YYZ=              1.7687  XYZ=             12.4258
 Hexadecapole moment (field-independent basis, Debye-Ang**3):
 XXXX=          -5603.4296 YYYY=          -9061.9781 ZZZZ=          -1026.5230 XXXY=          -2489.3645
 XXXZ=             96.5402 YYYX=          -2011.7334 YYYZ=            576.2602 ZZZX=            141.8031
 ZZZY=            717.9783 XXYY=          -2618.9658 XXZZ=          -1126.0836 YYZZ=          -1786.8870
 XXYZ=            288.3927 YYXZ=             76.3099 ZZXY=           -767.6875
 N-N= 1.485115793802D+03 E-N=-5.112354235418D+03  KE= 9.140669642537D+02
 Breneman (CHELPG) radii used.
 Generate Potential Derived Charges using the Breneman model, NDens= 1.
 Grid spacing= 0.300 Box extension= 2.800
 NStep X,Y,Z=   44     45     37   Total possible points=       73260
 Number of Points to Fit=   17975

 **********************************************************************

            Electrostatic Properties Using The SCF Density.

 **********************************************************************

       Atomic Center    1 is at  -0.579731  0.999954  0.794473
       Atomic Center    2 is at   0.791400  1.095581  0.902932
       Atomic Center    3 is at   1.493572  2.181086  0.333265
       Atomic Center    4 is at   0.765503  3.239239 -0.276022
       Atomic Center    5 is at  -0.619023  3.098900 -0.421061
       Atomic Center    6 is at  -1.272458  1.995902  0.106006
       Atomic Center    7 is at  -1.107539  0.155196  1.218553
       Atomic Center    8 is at   1.338557  0.297478  1.392916
       Atomic Center    9 is at  -1.196883  3.872339 -0.908768
       Atomic Center   10 is at  -2.349649  1.924121  0.001643
       Atomic Center   11 is at   2.971191  2.030874  0.149391
       Atomic Center   12 is at   0.815261  5.176572 -1.744838
       Atomic Center   13 is at   1.997186  5.220428  0.387029
       Atomic Center   14 is at   1.811730  6.160934 -2.344997
       Atomic Center   15 is at   2.985379  6.251654 -0.141971
       Atomic Center   16 is at   2.371461  7.083137 -1.265362
       Atomic Center   17 is at   1.310394  6.735699 -3.128441
       Atomic Center   18 is at   2.625456  5.599986 -2.816422
       Atomic Center   19 is at   3.296107  6.889202  0.690367
       Atomic Center   20 is at   3.876893  5.737603 -0.509463
       Atomic Center   21 is at   3.117516  7.761319 -1.687039
       Atomic Center   22 is at   1.561302  7.705934 -0.864746
       Atomic Center   23 is at   1.453392  4.377838 -0.698297
       Atomic Center   24 is at   2.476436  4.581687  1.129611
       Atomic Center   25 is at   1.159036  5.734058  0.888333
       Atomic Center   26 is at  -0.043753  5.739663 -1.340710
       Atomic Center   27 is at   0.442835  4.497701 -2.514331
       Atomic Center   28 is at   3.781836  0.980777  0.916043
       Atomic Center   29 is at   3.855973  2.747840 -0.872323
       Atomic Center   30 is at   4.686891  3.529295 -0.442692
       Atomic Center   31 is at   3.906733 -0.126432  0.425245
       Atomic Center   32 is at   3.711324  2.446078 -2.040704
       Atomic Center   33 is at   4.245793  1.335484  1.984492
   17975 points will be used for fitting atomic charges
 Fitting point charges to electrostatic potential
 Charges from ESP fit, RMS=   0.00343 RRMS=   0.17080:
 ESP charges:
               1
     1  C   -0.149102
     2  C   -0.074386
     3  C   -0.176409
     4  C    0.351491
     5  C   -0.215136
     6  C   -0.015238
     7  H    0.124498
     8  H    0.128176
     9  H    0.118202
    10  H    0.118001
    11  B    0.115199
    12  C    0.178697
    13  C    0.263131
    14  C   -0.086977
    15  C   -0.027262
    16  C   -0.030118
    17  H    0.026100
    18  H    0.057748
    19  H    0.017141
    20  H    0.037971
    21  H    0.024780
    22  H    0.015514
    23  N   -0.440318
    24  H   -0.045952
    25  H   -0.033444
    26  H    0.017284
    27  H    0.010090
    28  N    0.775826
    29  N    0.724619
    30  O   -0.434120
    31  O   -0.462453
    32  O   -0.457965
    33  O   -0.455589
 Sum of ESP charges =  -0.00000
 ESP charges with hydrogens summed into heavy atoms:
               1
     1  C   -0.024604
     2  C    0.053790
     3  C   -0.176409
     4  C    0.351491
     5  C   -0.096934
     6  C    0.102763
    11  B    0.115199
    12  C    0.206071
    13  C    0.183735
    14  C   -0.003129
    15  C    0.027851
    16  C    0.010176
    23  N   -0.440318
    28  N    0.775826
    29  N    0.724619
    30  O   -0.434120
    31  O   -0.462453
    32  O   -0.457965
    33  O   -0.455589
 Charge=  -0.00000 Dipole=    -7.4028     3.3274    -0.0067 Tot=     8.1162
 -----------------------------------------------------------------

              Electrostatic Properties (Atomic Units)

 -----------------------------------------------------------------
    Center     Electric         -------- Electric Field --------
               Potential          X             Y             Z
 -----------------------------------------------------------------
    1 Atom    -14.744290
    2 Atom    -14.729672
    3 Atom    -14.745303
    4 Atom    -14.690415
    5 Atom    -14.740538
    6 Atom    -14.727009
    7 Atom     -1.074214
    8 Atom     -1.071565
    9 Atom     -1.066542
   10 Atom     -1.065592
   11 Atom    -11.353477
   12 Atom    -14.724962
   13 Atom    -14.725007
   14 Atom    -14.764020
   15 Atom    -14.769517
   16 Atom    -14.765997
   17 Atom     -1.109892
   18 Atom     -1.120111
   19 Atom     -1.114580
   20 Atom     -1.127053
   21 Atom     -1.118355
   22 Atom     -1.115430
   23 Atom    -18.355486
   24 Atom     -1.100054
   25 Atom     -1.103760
   26 Atom     -1.097821
   27 Atom     -1.096542
   28 Atom    -18.158792
   29 Atom    -18.159856
   30 Atom    -22.327398
   31 Atom    -22.324905
   32 Atom    -22.327787
   33 Atom    -22.324555
 -----------------------------------------------------------------
 Unable to Open any file for archive entry.
 1\1\GINC-IRENE5457\SP\RwB97XD\GenECP\C11H14B1N3O4\PENASFRA\11-Apr-2024
 \0\\# wb97xd/genecp scrf=(solvent=toluene,pcm) nosymm pop=(chelpg) scf
 cyc=300\\no2_benzopiperidine_chelpg\\0,1\C,0,-0.579731,0.999954,0.7944
 73\C,0,0.7914,1.095581,0.902932\C,0,1.493572,2.181086,0.333265\C,0,0.7
 65503,3.239239,-0.276022\C,0,-0.619023,3.0989,-0.421061\C,0,-1.272458,
 1.995902,0.106006\H,0,-1.107539,0.155196,1.218553\H,0,1.338557,0.29747
 8,1.392916\H,0,-1.196883,3.872339,-0.908768\H,0,-2.349649,1.924121,0.0
 01643\B,0,2.971191,2.030874,0.149391\C,0,0.815261,5.176572,-1.744838\C
 ,0,1.997186,5.220428,0.387029\C,0,1.81173,6.160934,-2.344997\C,0,2.985
 379,6.251654,-0.141971\C,0,2.371461,7.083137,-1.265362\H,0,1.310394,6.
 735699,-3.128441\H,0,2.625456,5.599986,-2.816422\H,0,3.296107,6.889202
 ,0.690367\H,0,3.876893,5.737603,-0.509463\H,0,3.117516,7.761319,-1.687
 039\H,0,1.561302,7.705934,-0.864746\N,0,1.453392,4.377838,-0.698297\H,
 0,2.476436,4.581687,1.129611\H,0,1.159036,5.734058,0.888333\H,0,-0.043
 753,5.739663,-1.34071\H,0,0.442835,4.497701,-2.514331\N,0,3.781836,0.9
 80777,0.916043\N,0,3.855973,2.74784,-0.872323\O,0,4.686891,3.529295,-0
 .442692\O,0,3.906733,-0.126432,0.425245\O,0,3.711324,2.446078,-2.04070
 4\O,0,4.245793,1.335484,1.984492\\Version=AS64L-G16RevC.02\HF=-917.408
 5978\RMSD=3.696e-09\Dipole=-2.882329,1.3143894,-0.0169039\Quadrupole=-
 18.866146,20.2757802,-1.4096342,-5.6942111,0.2416075,-2.7606675\PG=C01
  [X(C11H14B1N3O4)]\\@
 The archive entry for this job was punched.


 "A LITTLE BIT GOES A LONG WAY"
 R.S. MULLIKEN AS QUOTED BY K. RUEDENBERG
 Job cpu time:       0 days  1 hours 38 minutes 54.0 seconds.
 Elapsed time:       0 days  0 hours  1 minutes  0.8 seconds.
 File lengths (MBytes):  RWF=    245 Int=      0 D2E=      0 Chk=     17 Scr=      1
 Normal termination of Gaussian 16 at Thu Apr 11 15:16:26 2024.
