 Entering Gaussian System, Link 0=/ccc/products/gaussian-16-C.02/system/default/g16/g16
 Input=no2_nmeimidazole_chelpg.gjf
 Output=no2_nmeimidazole_chelpg.log
 Initial command:
 /ccc/products/gaussian-16-C.02/system/default/g16/l1.exe "/ccc/scratch/cont003/gen7343/penasfra/flp/b-n_flp/no2_nmeimidazole/reac/Gau-1038436.inp" -scrdir="/ccc/scratch/cont003/gen7343/penasfra/flp/b-n_flp/no2_nmeimidazole/reac/"
 Entering Link 1 = /ccc/products/gaussian-16-C.02/system/default/g16/l1.exe PID=   1038485.
  
 Copyright (c) 1988-2021, Gaussian, Inc.  All Rights Reserved.
  
 This is part of the Gaussian(R) 16 program.  It is based on
 the Gaussian(R) 09 system (copyright 2009, Gaussian, Inc.),
 the Gaussian(R) 03 system (copyright 2003, Gaussian, Inc.),
 the Gaussian(R) 98 system (copyright 1998, Gaussian, Inc.),
 the Gaussian(R) 94 system (copyright 1995, Gaussian, Inc.),
 the Gaussian 92(TM) system (copyright 1992, Gaussian, Inc.),
 the Gaussian 90(TM) system (copyright 1990, Gaussian, Inc.),
 the Gaussian 88(TM) system (copyright 1988, Gaussian, Inc.),
 the Gaussian 86(TM) system (copyright 1986, Carnegie Mellon
 University), and the Gaussian 82(TM) system (copyright 1983,
 Carnegie Mellon University). Gaussian is a federally registered
 trademark of Gaussian, Inc.
  
 This software contains proprietary and confidential information,
 including trade secrets, belonging to Gaussian, Inc.
  
 This software is provided under written license and may be
 used, copied, transmitted, or stored only in accord with that
 written license.
  
 The following legend is applicable only to US Government
 contracts under FAR:
  
                    RESTRICTED RIGHTS LEGEND
  
 Use, reproduction and disclosure by the US Government is
 subject to restrictions as set forth in subparagraphs (a)
 and (c) of the Commercial Computer Software - Restricted
 Rights clause in FAR 52.227-19.
  
 Gaussian, Inc.
 340 Quinnipiac St., Bldg. 40, Wallingford CT 06492
  
  
 ---------------------------------------------------------------
 Warning -- This program may not be used in any manner that
 competes with the business of Gaussian, Inc. or will provide
 assistance to any competitor of Gaussian, Inc.  The licensee
 of this program is prohibited from giving any competitor of
 Gaussian, Inc. access to this program.  By using this program,
 the user acknowledges that Gaussian, Inc. is engaged in the
 business of creating and licensing software in the field of
 computational chemistry and represents and warrants to the
 licensee that it is not a competitor of Gaussian, Inc. and that
 it will not use this program in any manner prohibited above.
 ---------------------------------------------------------------
  

 Cite this work as:
 Gaussian 16, Revision C.02,
 M. J. Frisch, G. W. Trucks, H. B. Schlegel, G. E. Scuseria, 
 M. A. Robb, J. R. Cheeseman, G. Scalmani, V. Barone, 
 G. A. Petersson, H. Nakatsuji, X. Li, M. Caricato, A. V. Marenich, 
 J. Bloino, B. G. Janesko, R. Gomperts, B. Mennucci, H. P. Hratchian, 
 J. V. Ortiz, A. F. Izmaylov, J. L. Sonnenberg, D. Williams-Young, 
 F. Ding, F. Lipparini, F. Egidi, J. Goings, B. Peng, A. Petrone, 
 T. Henderson, D. Ranasinghe, V. G. Zakrzewski, J. Gao, N. Rega, 
 G. Zheng, W. Liang, M. Hada, M. Ehara, K. Toyota, R. Fukuda, 
 J. Hasegawa, M. Ishida, T. Nakajima, Y. Honda, O. Kitao, H. Nakai, 
 T. Vreven, K. Throssell, J. A. Montgomery, Jr., J. E. Peralta, 
 F. Ogliaro, M. J. Bearpark, J. J. Heyd, E. N. Brothers, K. N. Kudin, 
 V. N. Staroverov, T. A. Keith, R. Kobayashi, J. Normand, 
 K. Raghavachari, A. P. Rendell, J. C. Burant, S. S. Iyengar, 
 J. Tomasi, M. Cossi, J. M. Millam, M. Klene, C. Adamo, R. Cammi, 
 J. W. Ochterski, R. L. Martin, K. Morokuma, O. Farkas, 
 J. B. Foresman, and D. J. Fox, Gaussian, Inc., Wallingford CT, 2019.
 
 ******************************************
 Gaussian 16:  AS64L-G16RevC.02  7-Dec-2021
                11-Apr-2024 
 ******************************************
 %nprocshared=128
 Will use up to  128 processors via shared memory.
 %mem=30GB
 %chk=no2_nmeimidazole_chelpg.chk
 ----------------------------------------------------------------------
 # wb97xd/genecp scrf=(solvent=toluene,pcm) nosymm pop=(chelpg) scfcyc=
 300
 ----------------------------------------------------------------------
 1/38=1,172=1/1;
 2/12=2,15=1,17=6,18=5,40=1/2;
 3/5=7,11=2,16=1,17=8,25=1,30=1,70=2201,72=13,74=-58/1,2,3;
 4//1;
 5/5=2,7=300,38=5,53=13/2;
 6/7=2,8=2,9=2,10=2,15=8,20=3,28=1/1,2;
 99/5=1,9=1/99;
 -----------------------
 no2_nmeimidazole_chelpg
 -----------------------
 Symbolic Z-matrix:
 Charge =  0 Multiplicity = 1
 C                     2.7184    1.63459   1.08231 
 H                     2.81719   2.22383   1.98116 
 C                     3.19723   0.37073   0.75605 
 N                     2.03139   2.06718   0.01103 
 N                     2.78339   0.04664  -0.53211 
 B                     4.00876  -0.53531   1.60446 
 C                     1.29656   3.31858  -0.11343 
 H                     1.33131   3.65072  -1.14987 
 H                     0.25908   3.17855   0.19152 
 H                     1.76491   4.07248   0.51649 
 C                     2.09852   1.06911  -0.9376 
 H                     1.62057   1.17663  -1.90065 
 N                     4.52002  -0.13566   2.98944 
 N                     4.41     -1.94334   1.18498 
 O                     3.68883  -2.83932   1.58943 
 O                     5.39661  -2.08463   0.49236 
 O                     5.71594   0.07535   3.08501 
 O                     3.71125  -0.02861   3.89306 
 
                          Input orientation:                          
 ---------------------------------------------------------------------
 Center     Atomic      Atomic             Coordinates (Angstroms)
 Number     Number       Type             X           Y           Z
 ---------------------------------------------------------------------
      1          6           0        2.718403    1.634587    1.082312
      2          1           0        2.817185    2.223830    1.981157
      3          6           0        3.197234    0.370733    0.756051
      4          7           0        2.031389    2.067181    0.011027
      5          7           0        2.783390    0.046640   -0.532114
      6          5           0        4.008756   -0.535310    1.604461
      7          6           0        1.296563    3.318575   -0.113432
      8          1           0        1.331314    3.650718   -1.149869
      9          1           0        0.259075    3.178550    0.191523
     10          1           0        1.764907    4.072482    0.516488
     11          6           0        2.098521    1.069112   -0.937604
     12          1           0        1.620568    1.176632   -1.900645
     13          7           0        4.520019   -0.135660    2.989441
     14          7           0        4.410003   -1.943339    1.184978
     15          8           0        3.688828   -2.839317    1.589432
     16          8           0        5.396610   -2.084628    0.492361
     17          8           0        5.715940    0.075351    3.085011
     18          8           0        3.711249   -0.028614    3.893064
 ---------------------------------------------------------------------
                    Distance matrix (angstroms):
                    1          2          3          4          5
     1  C    0.000000
     2  H    1.079300   0.000000
     3  C    1.390343   2.253728   0.000000
     4  N    1.344164   2.126835   2.189107   0.000000
     5  N    2.265429   3.325331   1.391284   2.223307   0.000000
     6  B    2.578004   3.028959   1.482997   3.636203   2.530838
     7  C    2.507439   2.810349   3.613630   1.456519   3.618219
     8  H    3.312315   3.747952   4.227587   2.084556   3.934403
     9  H    3.037371   3.264691   4.103085   2.099718   4.087136
    10  H    2.678179   2.582646   3.976418   2.085122   4.283022
    11  C    2.187253   3.220096   2.136205   1.378604   1.295730
    12  H    3.211386   4.194866   3.192708   2.148567   2.121771
    13  N    3.164923   3.079525   2.644660   4.462817   3.930708
    14  N    3.958990   4.531696   2.647587   4.808351   3.091002
    15  O    4.605943   5.152540   3.352702   5.414073   3.694526
    16  O    4.620973   5.237629   3.306900   5.365996   3.524311
    17  O    3.927754   3.773226   3.443136   5.195448   4.656637
    18  O    3.413548   3.086785   3.203832   4.720646   4.522033
                    6          7          8          9         10
     6  B    0.000000
     7  C    5.015932   0.000000
     8  H    5.681361   1.088912   0.000000
     9  H    5.463447   1.090406   1.781003   0.000000
    10  H    5.239303   1.088357   1.772747   1.781080   0.000000
    11  C    3.561638   2.526357   2.701546   3.017982   3.353493
    12  H    4.573834   2.808386   2.601621   3.199767   3.774826
    13  N    1.529470   5.652453   6.452781   6.080130   5.604873
    14  N    1.522994   6.250369   6.798773   6.667151   6.605567
    15  O    2.326162   6.822193   7.428472   7.066263   7.254354
    16  O    2.358663   6.809697   7.219262   7.361101   7.148416
    17  O    2.340814   6.346608   7.066994   6.912271   6.179404
    18  O    2.362828   5.752077   6.680774   5.992062   5.657606
                   11         12         13         14         15
    11  C    0.000000
    12  H    1.080485   0.000000
    13  N    4.768313   5.834541   0.000000
    14  N    4.350076   5.199638   2.556539   0.000000
    15  O    4.918415   5.708431   3.156052   1.219202   0.000000
    16  O    4.782078   5.533605   3.286685   1.213703   2.165558
    17  O    5.500428   6.545354   1.218149   3.064426   3.852432
    18  O    5.209726   6.276195   1.217416   3.389419   3.634181
                   16         17         18
    16  O    0.000000
    17  O    3.389589   0.000000
    18  O    4.316528   2.163919   0.000000
 Symmetry turned off by external request.
 Stoichiometry    C4H5BN4O4
 Framework group  C1[X(C4H5BN4O4)]
 Deg. of freedom    48
 Full point group                 C1      NOp   1
 Rotational constants (GHZ):           1.3165548           0.5423802           0.4311637
 General basis read from cards:  (5D, 7F)
 ======================================================================================================
                                       Pseudopotential Parameters
 ======================================================================================================
  Center     Atomic      Valence      Angular      Power
  Number     Number     Electrons     Momentum     of R      Exponent        Coefficient   SO-Coeffient
 ======================================================================================================
    1          6
                                   No pseudopotential on this center.
    2          1
                                   No pseudopotential on this center.
    3          6
                                   No pseudopotential on this center.
    4          7
                                   No pseudopotential on this center.
    5          7
                                   No pseudopotential on this center.
    6          5
                                   No pseudopotential on this center.
    7          6
                                   No pseudopotential on this center.
    8          1
                                   No pseudopotential on this center.
    9          1
                                   No pseudopotential on this center.
   10          1
                                   No pseudopotential on this center.
   11          6
                                   No pseudopotential on this center.
   12          1
                                   No pseudopotential on this center.
   13          7
                                   No pseudopotential on this center.
   14          7
                                   No pseudopotential on this center.
   15          8
                                   No pseudopotential on this center.
   16          8
                                   No pseudopotential on this center.
   17          8
                                   No pseudopotential on this center.
   18          8
                                   No pseudopotential on this center.
 ======================================================================================================
   321 basis functions,   513 primitive gaussians,   334 cartesian basis functions
    47 alpha electrons       47 beta electrons
       nuclear repulsion energy       766.4772186286 Hartrees.
 NAtoms=   18 NActive=   18 NUniq=   18 SFac= 1.00D+00 NAtFMM=   60 NAOKFM=F Big=F
 Integral buffers will be    131072 words long.
 Raffenetti 2 integral format.
 Two-electron integral symmetry is turned off.
 Nuclear repulsion after empirical dispersion term =      766.4678577253 Hartrees.
 ------------------------------------------------------------------------------
 Polarizable Continuum Model (PCM)
 =================================
 Model                : PCM.
 Atomic radii         : UFF (Universal Force Field).
 Polarization charges : Total charges.
 Charge compensation  : None.
 Solution method      : On-the-fly selection.
 Cavity type          : Scaled VdW (van der Waals Surface) (Alpha=1.100).
 Cavity algorithm     : GePol (No added spheres)
                        Default sphere list used, NSphG=   18.
                        Lebedev-Laikov grids with approx.  5.0 points / Ang**2.
                        Smoothing algorithm: York/Karplus (Gamma=1.0000).
                        Polarization charges: spherical gaussians, with
                                              point-specific exponents (IZeta= 3).
                        Self-potential: point-specific (ISelfS= 7).
                        Self-field    : sphere-specific E.n sum rule (ISelfD= 2).
 Solvent              : Toluene, Eps=   2.374100 Eps(inf)=   2.238315
 ------------------------------------------------------------------------------
 Spheres list:
 ISph  on   Nord     Re0    Alpha      Xe            Ye            Ze
    1   C      1    1.9255  1.100      2.718403      1.634587      1.082312
    2   H      2    1.4430  1.100      2.817185      2.223830      1.981157
    3   C      3    1.9255  1.100      3.197234      0.370733      0.756051
    4   N      4    1.8300  1.100      2.031389      2.067181      0.011027
    5   N      5    1.8300  1.100      2.783390      0.046640     -0.532114
    6   B      6    2.0415  1.100      4.008756     -0.535310      1.604461
    7   C      7    1.9255  1.100      1.296563      3.318575     -0.113432
    8   H      8    1.4430  1.100      1.331314      3.650718     -1.149869
    9   H      9    1.4430  1.100      0.259075      3.178550      0.191523
   10   H     10    1.4430  1.100      1.764907      4.072482      0.516488
   11   C     11    1.9255  1.100      2.098521      1.069112     -0.937604
   12   H     12    1.4430  1.100      1.620568      1.176632     -1.900645
   13   N     13    1.8300  1.100      4.520019     -0.135660      2.989441
   14   N     14    1.8300  1.100      4.410003     -1.943339      1.184978
   15   O     15    1.7500  1.100      3.688828     -2.839317      1.589432
   16   O     16    1.7500  1.100      5.396610     -2.084628      0.492361
   17   O     17    1.7500  1.100      5.715940      0.075351      3.085011
   18   O     18    1.7500  1.100      3.711249     -0.028614      3.893064
 ------------------------------------------------------------------------------
 One-electron integrals computed using PRISM.
   1 Symmetry operations used in ECPInt.
 ECPInt:  NShTT=    5356 NPrTT=   21159 LenC2=    4972 LenP2D=   13583.
 LDataN:  DoStor=T MaxTD1= 4 Len=   56
 NBasis=   321 RedAO= T EigKep=  5.62D-06  NBF=   321
 NBsUse=   321 1.00D-06 EigRej= -1.00D+00 NBFU=   321
 ExpMin= 3.15D-02 ExpMax= 8.59D+03 ExpMxC= 1.30D+03 IAcc=3 IRadAn=         5 AccDes= 0.00D+00
 Harris functional with IExCor= 4639 and IRadAn=       5 diagonalized for initial guess.
 HarFok:  IExCor= 4639 AccDes= 0.00D+00 IRadAn=         5 IDoV= 1 UseB2=F ITyADJ=14
 ICtDFT=  3500011 ScaDFX=  1.000000  1.000000  1.000000  1.000000
 FoFCou: FMM=F IPFlag=           0 FMFlag=      100000 FMFlg1=           0
         NFxFlg=           0 DoJE=T BraDBF=F KetDBF=T FulRan=T
         wScrn=  0.000000 ICntrl=       500 IOpCl=  0 I1Cent=   200000004 NGrid=           0
         NMat0=    1 NMatS0=      1 NMatT0=    0 NMatD0=    1 NMtDS0=    0 NMtDT0=    0
 Symmetry not used in FoFCou.
 Requested convergence on RMS density matrix=1.00D-08 within 300 cycles.
 Requested convergence on MAX density matrix=1.00D-06.
 Requested convergence on             energy=1.00D-06.
 No special actions if energy rises.
 Inv3:  Mode=1 IEnd=     9366867.
 Iteration    1 A*A^-1 deviation from unit magnitude is 3.55D-15 for   1763.
 Iteration    1 A*A^-1 deviation from orthogonality  is 1.46D-15 for   1507    361.
 Iteration    1 A^-1*A deviation from unit magnitude is 3.33D-15 for   1763.
 Iteration    1 A^-1*A deviation from orthogonality  is 1.60D-15 for   1522   1484.
 Error on total polarization charges =  0.01051
 SCF Done:  E(RwB97XD) =  -699.999757228     A.U. after   16 cycles
            NFock= 16  Conv=0.92D-08     -V/T= 2.0031

 **********************************************************************

            Population analysis using the SCF Density.

 **********************************************************************

 Alpha  occ. eigenvalues --  -19.31519 -19.31503 -19.31014 -19.30905 -14.68559
 Alpha  occ. eigenvalues --  -14.67967 -14.54198 -14.45689 -10.37616 -10.37175
 Alpha  occ. eigenvalues --  -10.35759 -10.33220  -6.96371  -1.37008  -1.36177
 Alpha  occ. eigenvalues --   -1.19526  -1.18989  -1.17396  -1.03384  -0.90602
 Alpha  occ. eigenvalues --   -0.87743  -0.84449  -0.80694  -0.74489  -0.71324
 Alpha  occ. eigenvalues --   -0.68961  -0.67584  -0.66949  -0.64486  -0.63626
 Alpha  occ. eigenvalues --   -0.63197  -0.62727  -0.60380  -0.57613  -0.55631
 Alpha  occ. eigenvalues --   -0.53257  -0.52535  -0.52056  -0.43754  -0.42970
 Alpha  occ. eigenvalues --   -0.42272  -0.42048  -0.41116  -0.40314  -0.39989
 Alpha  occ. eigenvalues --   -0.39577  -0.35943
 Alpha virt. eigenvalues --   -0.04388  -0.02945  -0.00865   0.03101   0.04474
 Alpha virt. eigenvalues --    0.05012   0.05990   0.07405   0.07799   0.08228
 Alpha virt. eigenvalues --    0.08496   0.08896   0.10370   0.11056   0.11736
 Alpha virt. eigenvalues --    0.13217   0.14104   0.14625   0.14983   0.15706
 Alpha virt. eigenvalues --    0.15869   0.16322   0.17280   0.17591   0.18055
 Alpha virt. eigenvalues --    0.18208   0.19076   0.19511   0.19916   0.20938
 Alpha virt. eigenvalues --    0.21292   0.22100   0.22437   0.22915   0.23689
 Alpha virt. eigenvalues --    0.23869   0.24685   0.25081   0.25490   0.25771
 Alpha virt. eigenvalues --    0.26883   0.28040   0.28913   0.29288   0.29470
 Alpha virt. eigenvalues --    0.30443   0.31227   0.31344   0.32488   0.32972
 Alpha virt. eigenvalues --    0.33068   0.34027   0.34614   0.34742   0.35672
 Alpha virt. eigenvalues --    0.35972   0.36517   0.36857   0.37908   0.38450
 Alpha virt. eigenvalues --    0.39365   0.39420   0.39999   0.40774   0.41402
 Alpha virt. eigenvalues --    0.42074   0.42540   0.43561   0.44267   0.45841
 Alpha virt. eigenvalues --    0.46463   0.47478   0.48630   0.50044   0.51093
 Alpha virt. eigenvalues --    0.51218   0.52621   0.53398   0.54089   0.54705
 Alpha virt. eigenvalues --    0.56583   0.56940   0.59013   0.60072   0.62780
 Alpha virt. eigenvalues --    0.63899   0.65583   0.66171   0.68798   0.69833
 Alpha virt. eigenvalues --    0.69965   0.70554   0.72788   0.73742   0.75500
 Alpha virt. eigenvalues --    0.77301   0.81326   0.82559   0.83928   0.84256
 Alpha virt. eigenvalues --    0.85385   0.88670   0.90554   0.92499   0.93503
 Alpha virt. eigenvalues --    0.94752   0.96625   0.97557   0.98637   1.00041
 Alpha virt. eigenvalues --    1.02848   1.03160   1.05113   1.05729   1.05926
 Alpha virt. eigenvalues --    1.07556   1.11107   1.11492   1.12807   1.13520
 Alpha virt. eigenvalues --    1.14370   1.15091   1.17513   1.19448   1.20494
 Alpha virt. eigenvalues --    1.20930   1.21756   1.22503   1.23499   1.25162
 Alpha virt. eigenvalues --    1.25441   1.27600   1.30017   1.31098   1.32553
 Alpha virt. eigenvalues --    1.33437   1.34291   1.38572   1.40823   1.43121
 Alpha virt. eigenvalues --    1.46276   1.48013   1.48413   1.51472   1.52500
 Alpha virt. eigenvalues --    1.60753   1.62500   1.63668   1.65752   1.69543
 Alpha virt. eigenvalues --    1.70134   1.73423   1.74763   1.76270   1.76571
 Alpha virt. eigenvalues --    1.77840   1.78423   1.79392   1.80973   1.82526
 Alpha virt. eigenvalues --    1.85235   1.86804   1.89135   1.91080   1.91706
 Alpha virt. eigenvalues --    1.95590   2.01945   2.06067   2.09550   2.12851
 Alpha virt. eigenvalues --    2.16298   2.19002   2.19987   2.21438   2.24573
 Alpha virt. eigenvalues --    2.27920   2.30021   2.32540   2.33976   2.35579
 Alpha virt. eigenvalues --    2.39713   2.41395   2.44176   2.45999   2.50615
 Alpha virt. eigenvalues --    2.51748   2.53524   2.57499   2.58203   2.62018
 Alpha virt. eigenvalues --    2.63612   2.67177   2.68445   2.69437   2.76769
 Alpha virt. eigenvalues --    2.78538   2.81509   2.85247   2.85579   2.86251
 Alpha virt. eigenvalues --    2.86860   2.87672   2.88535   2.89648   2.90906
 Alpha virt. eigenvalues --    2.91505   2.94992   2.98014   2.99226   3.00222
 Alpha virt. eigenvalues --    3.03562   3.04155   3.06472   3.06833   3.16762
 Alpha virt. eigenvalues --    3.19139   3.21400   3.23269   3.33272   3.35155
 Alpha virt. eigenvalues --    3.45771   3.46793   3.47364   3.51661   3.55359
 Alpha virt. eigenvalues --    3.61170   3.62270   3.63770   3.66170   3.72248
 Alpha virt. eigenvalues --    3.79315   3.84161   3.86022   3.87639   3.87756
 Alpha virt. eigenvalues --    3.94294   3.97385   4.00238   4.01706   4.02465
 Alpha virt. eigenvalues --    4.11083   4.47866   4.58882   4.59593   4.60067
 Alpha virt. eigenvalues --    4.62119   4.86191   5.04900   5.07889   5.09161
 Alpha virt. eigenvalues --    5.11815   5.13191   5.14630   5.15180   5.26141
 Alpha virt. eigenvalues --    5.28580   5.34648   5.67288   5.70266   6.32838
 Alpha virt. eigenvalues --    6.34426  14.75296  23.91016  24.03255  24.05395
 Alpha virt. eigenvalues --   24.18585  35.49401  35.53956  35.61005  35.80251
 Alpha virt. eigenvalues --   49.99979  50.01196  50.08827  50.10767
          Condensed to atoms (all electrons):
               1          2          3          4          5          6
     1  C    9.659515   0.401667  -3.498079   0.353718   0.033212  -0.588037
     2  H    0.401667   0.439529  -0.011536  -0.043984   0.005788  -0.035043
     3  C   -3.498079  -0.011536   9.645049  -0.311588   0.308003   0.921052
     4  N    0.353718  -0.043984  -0.311588   6.660662  -0.008680   0.016437
     5  N    0.033212   0.005788   0.308003  -0.008680   6.575746  -0.064835
     6  B   -0.588037  -0.035043   0.921052   0.016437  -0.064835   4.293715
     7  C   -0.111898  -0.006078  -0.092669   0.243218   0.022965  -0.003011
     8  H    0.007164   0.000036  -0.013026  -0.046963   0.003445   0.001547
     9  H   -0.029080   0.001094   0.010491  -0.027001  -0.000114  -0.000657
    10  H   -0.018109  -0.009538   0.038197  -0.034887  -0.001064   0.001387
    11  C   -0.267351  -0.001703  -0.258780   0.218354   0.291639  -0.004296
    12  H    0.024798   0.001691   0.000704  -0.085945  -0.059546  -0.005772
    13  N   -0.233822  -0.009073   0.200304  -0.005267   0.029975   0.203523
    14  N    0.325380   0.012427  -0.215612   0.001270  -0.032199   0.082007
    15  O    0.042768   0.000471  -0.021934   0.000363  -0.018190  -0.137685
    16  O    0.027158  -0.000345  -0.030803   0.000325   0.006397  -0.092352
    17  O    0.027809  -0.015658  -0.044468   0.002251  -0.013020  -0.135272
    18  O    0.152267   0.013483  -0.146329   0.007252  -0.014050  -0.131749
               7          8          9         10         11         12
     1  C   -0.111898   0.007164  -0.029080  -0.018109  -0.267351   0.024798
     2  H   -0.006078   0.000036   0.001094  -0.009538  -0.001703   0.001691
     3  C   -0.092669  -0.013026   0.010491   0.038197  -0.258780   0.000704
     4  N    0.243218  -0.046963  -0.027001  -0.034887   0.218354  -0.085945
     5  N    0.022965   0.003445  -0.000114  -0.001064   0.291639  -0.059546
     6  B   -0.003011   0.001547  -0.000657   0.001387  -0.004296  -0.005772
     7  C    5.230648   0.411455   0.396247   0.412160  -0.099048  -0.007423
     8  H    0.411455   0.513006  -0.038838  -0.027710   0.004928  -0.004882
     9  H    0.396247  -0.038838   0.490478  -0.029777  -0.004907   0.001335
    10  H    0.412160  -0.027710  -0.029777   0.494085  -0.020087  -0.001751
    11  C   -0.099048   0.004928  -0.004907  -0.020087   5.682905   0.432025
    12  H   -0.007423  -0.004882   0.001335  -0.001751   0.432025   0.430865
    13  N   -0.011983   0.000027   0.000021  -0.000872   0.047106   0.000852
    14  N    0.007361   0.000034  -0.000192   0.000550  -0.050112   0.001200
    15  O   -0.000597  -0.000004   0.000019  -0.000066  -0.006030  -0.000030
    16  O   -0.001137   0.000015   0.000013  -0.000090   0.006220  -0.000334
    17  O    0.001273  -0.000028   0.000011   0.000282   0.003191   0.000442
    18  O    0.007290   0.000004  -0.000299   0.000633  -0.003857   0.000475
              13         14         15         16         17         18
     1  C   -0.233822   0.325380   0.042768   0.027158   0.027809   0.152267
     2  H   -0.009073   0.012427   0.000471  -0.000345  -0.015658   0.013483
     3  C    0.200304  -0.215612  -0.021934  -0.030803  -0.044468  -0.146329
     4  N   -0.005267   0.001270   0.000363   0.000325   0.002251   0.007252
     5  N    0.029975  -0.032199  -0.018190   0.006397  -0.013020  -0.014050
     6  B    0.203523   0.082007  -0.137685  -0.092352  -0.135272  -0.131749
     7  C   -0.011983   0.007361  -0.000597  -0.001137   0.001273   0.007290
     8  H    0.000027   0.000034  -0.000004   0.000015  -0.000028   0.000004
     9  H    0.000021  -0.000192   0.000019   0.000013   0.000011  -0.000299
    10  H   -0.000872   0.000550  -0.000066  -0.000090   0.000282   0.000633
    11  C    0.047106  -0.050112  -0.006030   0.006220   0.003191  -0.003857
    12  H    0.000852   0.001200  -0.000030  -0.000334   0.000442   0.000475
    13  N    7.569872  -0.388976   0.067117  -0.004884   0.048966  -0.031746
    14  N   -0.388976   7.387383   0.120982   0.093439   0.070482   0.020040
    15  O    0.067117   0.120982   8.058542  -0.126451  -0.010826  -0.018273
    16  O   -0.004884   0.093439  -0.126451   8.034642  -0.000883  -0.003022
    17  O    0.048966   0.070482  -0.010826  -0.000883   8.132563  -0.111568
    18  O   -0.031746   0.020040  -0.018273  -0.003022  -0.111568   8.191893
 Mulliken charges:
               1
     1  C   -0.309081
     2  H    0.256771
     3  C   -0.478976
     4  N    0.060466
     5  N   -0.065471
     6  B    0.679040
     7  C   -0.398773
     8  H    0.189790
     9  H    0.231155
    10  H    0.196656
    11  C    0.029803
    12  H    0.271297
    13  N   -0.481140
    14  N   -0.435464
    15  O    0.049823
    16  O    0.092092
    17  O    0.044454
    18  O    0.067557
 Sum of Mulliken charges =  -0.00000
 Mulliken charges with hydrogens summed into heavy atoms:
               1
     1  C   -0.052310
     3  C   -0.478976
     4  N    0.060466
     5  N   -0.065471
     6  B    0.679040
     7  C    0.218829
    11  C    0.301100
    13  N   -0.481140
    14  N   -0.435464
    15  O    0.049823
    16  O    0.092092
    17  O    0.044454
    18  O    0.067557
 Electronic spatial extent (au):  <R**2>=           7121.0797
 Charge=             -0.0000 electrons
 Dipole moment (field-independent basis, Debye):
    X=             -6.0188    Y=              9.3359    Z=             -3.2486  Tot=             11.5732
 Quadrupole moment (field-independent basis, Debye-Ang):
   XX=           -115.0233   YY=            -64.5226   ZZ=            -85.8588
   XY=             22.2669   XZ=            -13.1642   YZ=              1.5289
 Traceless Quadrupole moment (field-independent basis, Debye-Ang):
   XX=            -26.5551   YY=             23.9457   ZZ=              2.6094
   XY=             22.2669   XZ=            -13.1642   YZ=              1.5289
 Octapole moment (field-independent basis, Debye-Ang**2):
  XXX=          -1015.6933  YYY=             57.5284  ZZZ=           -323.9092  XYY=           -263.6380
  XXY=             60.4126  XXZ=           -155.0895  XZZ=           -318.3597  YZZ=             -2.0602
  YYZ=            -86.1398  XYZ=              3.9361
 Hexadecapole moment (field-independent basis, Debye-Ang**3):
 XXXX=          -7614.5014 YYYY=          -1286.7903 ZZZZ=          -1828.8580 XXXY=            534.7031
 XXXZ=          -1564.8955 YYYX=            472.1966 YYYZ=            188.1824 ZZZX=          -1427.7443
 ZZZY=            119.7878 XXYY=          -1361.9783 XXZZ=          -1603.9135 YYZZ=           -461.0816
 XXYZ=             39.7078 YYXZ=           -375.5342 ZZXY=             83.1521
 N-N= 7.664678577253D+02 E-N=-3.172560494832D+03  KE= 6.978044945189D+02
 Breneman (CHELPG) radii used.
 Generate Potential Derived Charges using the Breneman model, NDens= 1.
 Grid spacing= 0.300 Box extension= 2.800
 NStep X,Y,Z=   38     43     39   Total possible points=       63726
 Number of Points to Fit=   12915

 **********************************************************************

            Electrostatic Properties Using The SCF Density.

 **********************************************************************

       Atomic Center    1 is at   2.718403  1.634587  1.082312
       Atomic Center    2 is at   2.817185  2.223830  1.981157
       Atomic Center    3 is at   3.197234  0.370733  0.756051
       Atomic Center    4 is at   2.031389  2.067181  0.011027
       Atomic Center    5 is at   2.783390  0.046640 -0.532114
       Atomic Center    6 is at   4.008756 -0.535310  1.604461
       Atomic Center    7 is at   1.296563  3.318575 -0.113432
       Atomic Center    8 is at   1.331314  3.650718 -1.149869
       Atomic Center    9 is at   0.259075  3.178550  0.191523
       Atomic Center   10 is at   1.764907  4.072482  0.516488
       Atomic Center   11 is at   2.098521  1.069112 -0.937604
       Atomic Center   12 is at   1.620568  1.176632 -1.900645
       Atomic Center   13 is at   4.520019 -0.135660  2.989441
       Atomic Center   14 is at   4.410003 -1.943339  1.184978
       Atomic Center   15 is at   3.688828 -2.839317  1.589432
       Atomic Center   16 is at   5.396610 -2.084628  0.492361
       Atomic Center   17 is at   5.715940  0.075351  3.085011
       Atomic Center   18 is at   3.711249 -0.028614  3.893064
   12915 points will be used for fitting atomic charges
 Fitting point charges to electrostatic potential
 Charges from ESP fit, RMS=   0.00352 RRMS=   0.10033:
 ESP charges:
               1
     1  C   -0.289863
     2  H    0.226273
     3  C    0.230902
     4  N    0.190707
     5  N   -0.574701
     6  B    0.012641
     7  C   -0.309790
     8  H    0.126633
     9  H    0.143274
    10  H    0.159351
    11  C    0.221696
    12  H    0.116610
    13  N    0.733804
    14  N    0.833794
    15  O   -0.467794
    16  O   -0.464921
    17  O   -0.440553
    18  O   -0.448062
 Sum of ESP charges =  -0.00000
 ESP charges with hydrogens summed into heavy atoms:
               1
     1  C   -0.063590
     3  C    0.230902
     4  N    0.190707
     5  N   -0.574701
     6  B    0.012641
     7  C    0.119468
    11  C    0.338306
    13  N    0.733804
    14  N    0.833794
    15  O   -0.467794
    16  O   -0.464921
    17  O   -0.440553
    18  O   -0.448062
 Charge=  -0.00000 Dipole=    -6.0334     9.3451    -3.3002 Tot=    11.6028
 -----------------------------------------------------------------

              Electrostatic Properties (Atomic Units)

 -----------------------------------------------------------------
    Center     Electric         -------- Electric Field --------
               Potential          X             Y             Z
 -----------------------------------------------------------------
    1 Atom    -14.676513
    2 Atom     -1.012457
    3 Atom    -14.725980
    4 Atom    -18.264708
    5 Atom    -18.380304
    6 Atom    -11.354205
    7 Atom    -14.669775
    8 Atom     -1.033335
    9 Atom     -1.039610
   10 Atom     -1.032618
   11 Atom    -14.673141
   12 Atom     -1.027913
   13 Atom    -18.153118
   14 Atom    -18.165593
   15 Atom    -22.333451
   16 Atom    -22.333717
   17 Atom    -22.322442
   18 Atom    -22.319212
 -----------------------------------------------------------------
 Unable to Open any file for archive entry.
 1\1\GINC-IRENE6161\SP\RwB97XD\GenECP\C4H5B1N4O4\PENASFRA\11-Apr-2024\0
 \\# wb97xd/genecp scrf=(solvent=toluene,pcm) nosymm pop=(chelpg) scfcy
 c=300\\no2_nmeimidazole_chelpg\\0,1\C,0,2.718403,1.634587,1.082312\H,0
 ,2.817185,2.22383,1.981157\C,0,3.197234,0.370733,0.756051\N,0,2.031389
 ,2.067181,0.011027\N,0,2.78339,0.04664,-0.532114\B,0,4.008756,-0.53531
 ,1.604461\C,0,1.296563,3.318575,-0.113432\H,0,1.331314,3.650718,-1.149
 869\H,0,0.259075,3.17855,0.191523\H,0,1.764907,4.072482,0.516488\C,0,2
 .098521,1.069112,-0.937604\H,0,1.620568,1.176632,-1.900645\N,0,4.52001
 9,-0.13566,2.989441\N,0,4.410003,-1.943339,1.184978\O,0,3.688828,-2.83
 9317,1.589432\O,0,5.39661,-2.084628,0.492361\O,0,5.71594,0.075351,3.08
 5011\O,0,3.711249,-0.028614,3.893064\\Version=AS64L-G16RevC.02\HF=-699
 .9997572\RMSD=9.194e-09\Dipole=-2.3679961,3.6730399,-1.2781134\Quadrup
 ole=-19.7430421,17.8030047,1.9400374,16.5548894,-9.787236,1.1367045\PG
 =C01 [X(C4H5B1N4O4)]\\@
 The archive entry for this job was punched.


 CHEMISTRY BEGAN BY SAYING IT WOULD CHANGE THE BASER
 METALS INTO GOLD.  BY NOT DOING THAT IT HAS DONE MUCH
 GREATER THINGS.  --  RALPH WALDO EMERSON
 Job cpu time:       0 days  0 hours 30 minutes 50.9 seconds.
 Elapsed time:       0 days  0 hours  0 minutes 19.6 seconds.
 File lengths (MBytes):  RWF=    111 Int=      0 D2E=      0 Chk=      8 Scr=      1
 Normal termination of Gaussian 16 at Thu Apr 11 15:16:55 2024.
