 Entering Gaussian System, Link 0=/ccc/products/gaussian-16-C.02/system/default/g16/g16
 Input=no2_metriazole_chelpg.gjf
 Output=no2_metriazole_chelpg.log
 Initial command:
 /ccc/products/gaussian-16-C.02/system/default/g16/l1.exe "/ccc/scratch/cont003/gen7343/penasfra/flp/b-n_flp/no2_metriazole/Reactant/Gau-2025555.inp" -scrdir="/ccc/scratch/cont003/gen7343/penasfra/flp/b-n_flp/no2_metriazole/Reactant/"
 Entering Link 1 = /ccc/products/gaussian-16-C.02/system/default/g16/l1.exe PID=   2025604.
  
 Copyright (c) 1988-2021, Gaussian, Inc.  All Rights Reserved.
  
 This is part of the Gaussian(R) 16 program.  It is based on
 the Gaussian(R) 09 system (copyright 2009, Gaussian, Inc.),
 the Gaussian(R) 03 system (copyright 2003, Gaussian, Inc.),
 the Gaussian(R) 98 system (copyright 1998, Gaussian, Inc.),
 the Gaussian(R) 94 system (copyright 1995, Gaussian, Inc.),
 the Gaussian 92(TM) system (copyright 1992, Gaussian, Inc.),
 the Gaussian 90(TM) system (copyright 1990, Gaussian, Inc.),
 the Gaussian 88(TM) system (copyright 1988, Gaussian, Inc.),
 the Gaussian 86(TM) system (copyright 1986, Carnegie Mellon
 University), and the Gaussian 82(TM) system (copyright 1983,
 Carnegie Mellon University). Gaussian is a federally registered
 trademark of Gaussian, Inc.
  
 This software contains proprietary and confidential information,
 including trade secrets, belonging to Gaussian, Inc.
  
 This software is provided under written license and may be
 used, copied, transmitted, or stored only in accord with that
 written license.
  
 The following legend is applicable only to US Government
 contracts under FAR:
  
                    RESTRICTED RIGHTS LEGEND
  
 Use, reproduction and disclosure by the US Government is
 subject to restrictions as set forth in subparagraphs (a)
 and (c) of the Commercial Computer Software - Restricted
 Rights clause in FAR 52.227-19.
  
 Gaussian, Inc.
 340 Quinnipiac St., Bldg. 40, Wallingford CT 06492
  
  
 ---------------------------------------------------------------
 Warning -- This program may not be used in any manner that
 competes with the business of Gaussian, Inc. or will provide
 assistance to any competitor of Gaussian, Inc.  The licensee
 of this program is prohibited from giving any competitor of
 Gaussian, Inc. access to this program.  By using this program,
 the user acknowledges that Gaussian, Inc. is engaged in the
 business of creating and licensing software in the field of
 computational chemistry and represents and warrants to the
 licensee that it is not a competitor of Gaussian, Inc. and that
 it will not use this program in any manner prohibited above.
 ---------------------------------------------------------------
  

 Cite this work as:
 Gaussian 16, Revision C.02,
 M. J. Frisch, G. W. Trucks, H. B. Schlegel, G. E. Scuseria, 
 M. A. Robb, J. R. Cheeseman, G. Scalmani, V. Barone, 
 G. A. Petersson, H. Nakatsuji, X. Li, M. Caricato, A. V. Marenich, 
 J. Bloino, B. G. Janesko, R. Gomperts, B. Mennucci, H. P. Hratchian, 
 J. V. Ortiz, A. F. Izmaylov, J. L. Sonnenberg, D. Williams-Young, 
 F. Ding, F. Lipparini, F. Egidi, J. Goings, B. Peng, A. Petrone, 
 T. Henderson, D. Ranasinghe, V. G. Zakrzewski, J. Gao, N. Rega, 
 G. Zheng, W. Liang, M. Hada, M. Ehara, K. Toyota, R. Fukuda, 
 J. Hasegawa, M. Ishida, T. Nakajima, Y. Honda, O. Kitao, H. Nakai, 
 T. Vreven, K. Throssell, J. A. Montgomery, Jr., J. E. Peralta, 
 F. Ogliaro, M. J. Bearpark, J. J. Heyd, E. N. Brothers, K. N. Kudin, 
 V. N. Staroverov, T. A. Keith, R. Kobayashi, J. Normand, 
 K. Raghavachari, A. P. Rendell, J. C. Burant, S. S. Iyengar, 
 J. Tomasi, M. Cossi, J. M. Millam, M. Klene, C. Adamo, R. Cammi, 
 J. W. Ochterski, R. L. Martin, K. Morokuma, O. Farkas, 
 J. B. Foresman, and D. J. Fox, Gaussian, Inc., Wallingford CT, 2019.
 
 ******************************************
 Gaussian 16:  AS64L-G16RevC.02  7-Dec-2021
                 8-Apr-2024 
 ******************************************
 %nprocshared=128
 Will use up to  128 processors via shared memory.
 %mem=30GB
 %chk=no2_metriazole_chelpg.chk
 ----------------------------------------------------------------------
 # wb97xd/genecp scrf=(solvent=toluene,pcm) nosymm pop=(chelpg) scfcyc=
 300
 ----------------------------------------------------------------------
 1/38=1,172=1/1;
 2/12=2,15=1,17=6,18=5,40=1/2;
 3/5=7,11=2,16=1,17=8,25=1,30=1,70=2201,72=13,74=-58/1,2,3;
 4//1;
 5/5=2,7=300,38=5,53=13/2;
 6/7=2,8=2,9=2,10=2,15=8,20=3,28=1/1,2;
 99/5=1,9=1/99;
 ---------------------
 no2_metriazole_chelpg
 ---------------------
 Symbolic Z-matrix:
 Charge =  0 Multiplicity = 1
 C                     2.57648   1.62646   1.18457 
 H                     2.53138   2.10871   2.14755 
 C                     3.19413   0.4577    0.75583 
 N                     1.97531   2.10979   0.10341 
 N                     2.19035   1.30019  -0.96787 
 N                     2.91185   0.32016  -0.58597 
 B                     4.00297  -0.53165   1.52155 
 C                     1.17602   3.31444  -0.05069 
 H                     1.67227   3.9896   -0.74618 
 H                     0.19343   3.04364  -0.43327 
 H                     1.07746   3.79      0.92276 
 N                     4.3452   -0.33421   2.99502 
 O                     3.46441  -0.53008   3.81112 
 O                     5.47808   0.03342   3.24509 
 N                     4.54894  -1.81584   0.9179 
 O                     5.60742  -1.76758   0.32654 
 O                     3.86496  -2.80925   1.0867 
 
                          Input orientation:                          
 ---------------------------------------------------------------------
 Center     Atomic      Atomic             Coordinates (Angstroms)
 Number     Number       Type             X           Y           Z
 ---------------------------------------------------------------------
      1          6           0        2.576476    1.626464    1.184571
      2          1           0        2.531384    2.108705    2.147546
      3          6           0        3.194132    0.457704    0.755828
      4          7           0        1.975305    2.109794    0.103405
      5          7           0        2.190345    1.300189   -0.967866
      6          7           0        2.911849    0.320160   -0.585969
      7          5           0        4.002970   -0.531649    1.521553
      8          6           0        1.176022    3.314442   -0.050693
      9          1           0        1.672272    3.989597   -0.746175
     10          1           0        0.193428    3.043635   -0.433274
     11          1           0        1.077457    3.790002    0.922757
     12          7           0        4.345195   -0.334205    2.995022
     13          8           0        3.464406   -0.530078    3.811120
     14          8           0        5.478076    0.033422    3.245088
     15          7           0        4.548935   -1.815839    0.917904
     16          8           0        5.607421   -1.767575    0.326537
     17          8           0        3.864956   -2.809251    1.086696
 ---------------------------------------------------------------------
                    Distance matrix (angstroms):
                    1          2          3          4          5
     1  C    0.000000
     2  H    1.077920   0.000000
     3  C    1.389719   2.258743   0.000000
     4  N    1.328132   2.118428   2.154204   0.000000
     5  N    2.211004   3.236634   2.165292   1.359899   0.000000
     6  N    2.225695   3.288731   1.378050   2.134278   1.275488
     7  B    2.608811   3.086892   1.489756   3.619363   3.583078
     8  C    2.517224   2.850099   3.589456   1.453883   2.434599
     9  H    3.182729   3.556606   4.128721   2.085012   2.747810
    10  H    3.210096   3.605657   4.135847   2.082107   2.704269
    11  H    2.645090   2.537867   3.951251   2.073781   3.318455
    12  N    3.201613   3.158470   2.639329   4.466650   4.797823
    13  O    3.512528   3.255946   3.222355   4.788893   5.273691
    14  O    3.899076   3.767545   3.404825   5.143044   5.492072
    15  N    3.976324   4.580893   2.651558   4.764197   4.339206
    16  O    4.630589   5.272914   3.310607   5.317522   4.771065
    17  O    4.620100   5.204816   3.351488   5.360471   4.890097
                    6          7          8          9         10
     6  N    0.000000
     7  B    2.521462   0.000000
     8  C    3.502191   5.025536   0.000000
     9  H    3.876466   5.569238   1.088941   0.000000
    10  H    3.851032   5.578227   1.088667   1.783180   0.000000
    11  H    4.204884   5.252985   1.087877   1.782969   1.782524
    12  N    3.912310   1.525521   5.712501   6.311603   6.356114
    13  O    4.512495   2.352057   5.910214   6.663944   6.440932
    14  O    4.620037   2.337908   6.335214   6.787168   7.107688
    15  N    3.082884   1.520399   6.215666   6.689352   6.664129
    16  O    3.529506   2.351561   6.753258   7.055575   7.282608
    17  O    3.674158   2.322847   6.784072   7.375067   7.074369
                   11         12         13         14         15
    11  H    0.000000
    12  N    5.655217   0.000000
    13  O    5.718676   1.216623   0.000000
    14  O    6.234626   1.217005   2.166285   0.000000
    15  N    6.593682   2.559525   3.346653   3.114298   0.000000
    16  O    7.194631   3.281551   4.273901   3.431947   1.213440
    17  O    7.165694   3.161992   3.574571   3.916836   1.217861
                   16         17
    16  O    0.000000
    17  O    2.167744   0.000000
 Symmetry turned off by external request.
 Stoichiometry    C3H4BN5O4
 Framework group  C1[X(C3H4BN5O4)]
 Deg. of freedom    45
 Full point group                 C1      NOp   1
 Rotational constants (GHZ):           1.3277946           0.5401453           0.4325626
 General basis read from cards:  (5D, 7F)
 ======================================================================================================
                                       Pseudopotential Parameters
 ======================================================================================================
  Center     Atomic      Valence      Angular      Power
  Number     Number     Electrons     Momentum     of R      Exponent        Coefficient   SO-Coeffient
 ======================================================================================================
    1          6
                                   No pseudopotential on this center.
    2          1
                                   No pseudopotential on this center.
    3          6
                                   No pseudopotential on this center.
    4          7
                                   No pseudopotential on this center.
    5          7
                                   No pseudopotential on this center.
    6          7
                                   No pseudopotential on this center.
    7          5
                                   No pseudopotential on this center.
    8          6
                                   No pseudopotential on this center.
    9          1
                                   No pseudopotential on this center.
   10          1
                                   No pseudopotential on this center.
   11          1
                                   No pseudopotential on this center.
   12          7
                                   No pseudopotential on this center.
   13          8
                                   No pseudopotential on this center.
   14          8
                                   No pseudopotential on this center.
   15          7
                                   No pseudopotential on this center.
   16          8
                                   No pseudopotential on this center.
   17          8
                                   No pseudopotential on this center.
 ======================================================================================================
   314 basis functions,   504 primitive gaussians,   327 cartesian basis functions
    47 alpha electrons       47 beta electrons
       nuclear repulsion energy       769.7377420651 Hartrees.
 NAtoms=   17 NActive=   17 NUniq=   17 SFac= 1.00D+00 NAtFMM=   60 NAOKFM=F Big=F
 Integral buffers will be    131072 words long.
 Raffenetti 2 integral format.
 Two-electron integral symmetry is turned off.
 Nuclear repulsion after empirical dispersion term =      769.7293465984 Hartrees.
 ------------------------------------------------------------------------------
 Polarizable Continuum Model (PCM)
 =================================
 Model                : PCM.
 Atomic radii         : UFF (Universal Force Field).
 Polarization charges : Total charges.
 Charge compensation  : None.
 Solution method      : On-the-fly selection.
 Cavity type          : Scaled VdW (van der Waals Surface) (Alpha=1.100).
 Cavity algorithm     : GePol (No added spheres)
                        Default sphere list used, NSphG=   17.
                        Lebedev-Laikov grids with approx.  5.0 points / Ang**2.
                        Smoothing algorithm: York/Karplus (Gamma=1.0000).
                        Polarization charges: spherical gaussians, with
                                              point-specific exponents (IZeta= 3).
                        Self-potential: point-specific (ISelfS= 7).
                        Self-field    : sphere-specific E.n sum rule (ISelfD= 2).
 Solvent              : Toluene, Eps=   2.374100 Eps(inf)=   2.238315
 ------------------------------------------------------------------------------
 Spheres list:
 ISph  on   Nord     Re0    Alpha      Xe            Ye            Ze
    1   C      1    1.9255  1.100      2.576476      1.626464      1.184571
    2   H      2    1.4430  1.100      2.531384      2.108705      2.147546
    3   C      3    1.9255  1.100      3.194132      0.457704      0.755828
    4   N      4    1.8300  1.100      1.975305      2.109794      0.103405
    5   N      5    1.8300  1.100      2.190345      1.300189     -0.967866
    6   N      6    1.8300  1.100      2.911849      0.320160     -0.585969
    7   B      7    2.0415  1.100      4.002970     -0.531649      1.521553
    8   C      8    1.9255  1.100      1.176022      3.314442     -0.050693
    9   H      9    1.4430  1.100      1.672272      3.989597     -0.746175
   10   H     10    1.4430  1.100      0.193428      3.043635     -0.433274
   11   H     11    1.4430  1.100      1.077457      3.790002      0.922757
   12   N     12    1.8300  1.100      4.345195     -0.334205      2.995022
   13   O     13    1.7500  1.100      3.464406     -0.530078      3.811120
   14   O     14    1.7500  1.100      5.478076      0.033422      3.245088
   15   N     15    1.8300  1.100      4.548935     -1.815839      0.917904
   16   O     16    1.7500  1.100      5.607421     -1.767575      0.326537
   17   O     17    1.7500  1.100      3.864956     -2.809251      1.086696
 ------------------------------------------------------------------------------
 One-electron integrals computed using PRISM.
   1 Symmetry operations used in ECPInt.
 ECPInt:  NShTT=    4851 NPrTT=   19749 LenC2=    4488 LenP2D=   12479.
 LDataN:  DoStor=T MaxTD1= 4 Len=   56
 NBasis=   314 RedAO= T EigKep=  5.43D-06  NBF=   314
 NBsUse=   314 1.00D-06 EigRej= -1.00D+00 NBFU=   314
 ExpMin= 3.15D-02 ExpMax= 8.59D+03 ExpMxC= 1.30D+03 IAcc=3 IRadAn=         5 AccDes= 0.00D+00
 Harris functional with IExCor= 4639 and IRadAn=       5 diagonalized for initial guess.
 HarFok:  IExCor= 4639 AccDes= 0.00D+00 IRadAn=         5 IDoV= 1 UseB2=F ITyADJ=14
 ICtDFT=  3500011 ScaDFX=  1.000000  1.000000  1.000000  1.000000
 FoFCou: FMM=F IPFlag=           0 FMFlag=      100000 FMFlg1=           0
         NFxFlg=           0 DoJE=T BraDBF=F KetDBF=T FulRan=T
         wScrn=  0.000000 ICntrl=       500 IOpCl=  0 I1Cent=   200000004 NGrid=           0
         NMat0=    1 NMatS0=      1 NMatT0=    0 NMatD0=    1 NMtDS0=    0 NMtDT0=    0
 Symmetry not used in FoFCou.
 Requested convergence on RMS density matrix=1.00D-08 within 300 cycles.
 Requested convergence on MAX density matrix=1.00D-06.
 Requested convergence on             energy=1.00D-06.
 No special actions if energy rises.
 Inv3:  Mode=1 IEnd=     9240075.
 Iteration    1 A*A^-1 deviation from unit magnitude is 4.00D-15 for   1751.
 Iteration    1 A*A^-1 deviation from orthogonality  is 1.81D-15 for   1633   1389.
 Iteration    1 A^-1*A deviation from unit magnitude is 4.00D-15 for   1751.
 Iteration    1 A^-1*A deviation from orthogonality  is 5.72D-15 for   1502   1472.
 Error on total polarization charges =  0.01152
 SCF Done:  E(RwB97XD) =  -716.000373156     A.U. after   18 cycles
            NFock= 18  Conv=0.28D-08     -V/T= 2.0030

 **********************************************************************

            Population analysis using the SCF Density.

 **********************************************************************

 Alpha  occ. eigenvalues --  -19.32446 -19.32441 -19.31895 -19.31812 -14.69505
 Alpha  occ. eigenvalues --  -14.68938 -14.57320 -14.53491 -14.50524 -10.38864
 Alpha  occ. eigenvalues --  -10.36059 -10.34703  -6.98179  -1.37982  -1.37136
 Alpha  occ. eigenvalues --   -1.25697  -1.20554  -1.19981  -1.07232  -0.95935
 Alpha  occ. eigenvalues --   -0.88959  -0.87040  -0.81799  -0.77821  -0.73390
 Alpha  occ. eigenvalues --   -0.69930  -0.68525  -0.67924  -0.65259  -0.64511
 Alpha  occ. eigenvalues --   -0.64144  -0.63563  -0.62816  -0.58915  -0.56545
 Alpha  occ. eigenvalues --   -0.54214  -0.53666  -0.46813  -0.44891  -0.43861
 Alpha  occ. eigenvalues --   -0.43134  -0.42794  -0.42307  -0.41979  -0.41109
 Alpha  occ. eigenvalues --   -0.39664  -0.38976
 Alpha virt. eigenvalues --   -0.05169  -0.04045  -0.01950   0.02347   0.03172
 Alpha virt. eigenvalues --    0.05481   0.06255   0.06742   0.08159   0.08342
 Alpha virt. eigenvalues --    0.08448   0.10144   0.11056   0.11326   0.12942
 Alpha virt. eigenvalues --    0.13710   0.14417   0.14971   0.15821   0.15994
 Alpha virt. eigenvalues --    0.16058   0.16909   0.17560   0.17847   0.19101
 Alpha virt. eigenvalues --    0.20240   0.20492   0.20820   0.21147   0.21814
 Alpha virt. eigenvalues --    0.22185   0.22760   0.23849   0.24045   0.24271
 Alpha virt. eigenvalues --    0.24623   0.25033   0.25545   0.26354   0.27151
 Alpha virt. eigenvalues --    0.28411   0.28625   0.29068   0.29466   0.30071
 Alpha virt. eigenvalues --    0.31644   0.32433   0.32764   0.33471   0.34855
 Alpha virt. eigenvalues --    0.34995   0.35343   0.35712   0.36067   0.36884
 Alpha virt. eigenvalues --    0.37279   0.37922   0.38433   0.38922   0.39514
 Alpha virt. eigenvalues --    0.39923   0.40635   0.41857   0.42093   0.42360
 Alpha virt. eigenvalues --    0.43185   0.44212   0.45297   0.46253   0.46883
 Alpha virt. eigenvalues --    0.47441   0.49577   0.50533   0.51192   0.51980
 Alpha virt. eigenvalues --    0.52931   0.54263   0.54676   0.55766   0.56124
 Alpha virt. eigenvalues --    0.58771   0.59306   0.64002   0.64740   0.65114
 Alpha virt. eigenvalues --    0.65886   0.68572   0.69695   0.72368   0.72724
 Alpha virt. eigenvalues --    0.76850   0.77428   0.80810   0.82886   0.83345
 Alpha virt. eigenvalues --    0.87877   0.88090   0.88989   0.89782   0.90374
 Alpha virt. eigenvalues --    0.91294   0.93328   0.94362   0.94882   0.95866
 Alpha virt. eigenvalues --    0.97337   1.00165   1.01197   1.02145   1.04114
 Alpha virt. eigenvalues --    1.06491   1.07251   1.08634   1.10571   1.12214
 Alpha virt. eigenvalues --    1.12820   1.14662   1.15392   1.17728   1.18898
 Alpha virt. eigenvalues --    1.20306   1.21004   1.21844   1.22662   1.22994
 Alpha virt. eigenvalues --    1.25311   1.27268   1.28918   1.30197   1.31262
 Alpha virt. eigenvalues --    1.34378   1.35158   1.37530   1.38165   1.40703
 Alpha virt. eigenvalues --    1.44055   1.46447   1.46679   1.49179   1.54344
 Alpha virt. eigenvalues --    1.55291   1.58999   1.60951   1.62281   1.64205
 Alpha virt. eigenvalues --    1.66755   1.70523   1.73631   1.74567   1.75599
 Alpha virt. eigenvalues --    1.78401   1.79232   1.80378   1.80922   1.83084
 Alpha virt. eigenvalues --    1.86072   1.89101   1.92379   1.95698   1.97226
 Alpha virt. eigenvalues --    1.99525   2.06182   2.09389   2.11078   2.14042
 Alpha virt. eigenvalues --    2.16978   2.21107   2.24094   2.25236   2.27037
 Alpha virt. eigenvalues --    2.32548   2.34144   2.36698   2.37296   2.37514
 Alpha virt. eigenvalues --    2.40486   2.41031   2.43103   2.49900   2.54312
 Alpha virt. eigenvalues --    2.55339   2.57423   2.59578   2.61769   2.66388
 Alpha virt. eigenvalues --    2.71815   2.74622   2.75913   2.79371   2.81034
 Alpha virt. eigenvalues --    2.82725   2.84540   2.85107   2.85510   2.85799
 Alpha virt. eigenvalues --    2.86826   2.88045   2.89245   2.90479   2.94163
 Alpha virt. eigenvalues --    2.97018   2.99549   3.02943   3.04938   3.06415
 Alpha virt. eigenvalues --    3.15845   3.16768   3.19936   3.22888   3.28912
 Alpha virt. eigenvalues --    3.32212   3.34647   3.45559   3.46401   3.46918
 Alpha virt. eigenvalues --    3.50628   3.54679   3.61019   3.62512   3.63963
 Alpha virt. eigenvalues --    3.70280   3.76655   3.77841   3.83634   3.85057
 Alpha virt. eigenvalues --    3.86607   3.88320   3.95932   3.98405   4.00314
 Alpha virt. eigenvalues --    4.08181   4.09731   4.13389   4.24571   4.47216
 Alpha virt. eigenvalues --    4.58663   4.58840   4.60454   4.70078   4.90831
 Alpha virt. eigenvalues --    5.05857   5.07079   5.07623   5.10801   5.12539
 Alpha virt. eigenvalues --    5.13650   5.14503   5.25424   5.27963   5.66311
 Alpha virt. eigenvalues --    5.69555   5.71211   6.32151   6.33592  14.73375
 Alpha virt. eigenvalues --   23.90000  24.03236  24.18737  35.48337  35.51026
 Alpha virt. eigenvalues --   35.53904  35.59804  35.76362  49.99293  50.00551
 Alpha virt. eigenvalues --   50.07515  50.10084
          Condensed to atoms (all electrons):
               1          2          3          4          5          6
     1  C   10.109206   0.348203  -3.563756   0.243378  -0.601113   0.148975
     2  H    0.348203   0.417014   0.029949  -0.041995   0.026036  -0.018010
     3  C   -3.563756   0.029949   9.195494  -0.410132   0.690917   0.006944
     4  N    0.243378  -0.041995  -0.410132   6.801705  -0.154276   0.291017
     5  N   -0.601113   0.026036   0.690917  -0.154276   7.935789  -0.943151
     6  N    0.148975  -0.018010   0.006944   0.291017  -0.943151   7.724087
     7  B   -0.574710  -0.027935   0.781015   0.031697   0.029236  -0.037847
     8  C   -0.235434  -0.000891   0.053494   0.145316   0.056821  -0.071409
     9  H   -0.023716  -0.000134   0.008550  -0.016238  -0.008141  -0.000803
    10  H   -0.021551  -0.000909   0.004214  -0.028941  -0.000214   0.003017
    11  H    0.058996  -0.016154  -0.020182  -0.044396  -0.014268   0.015684
    12  N   -0.197924   0.003699   0.170684  -0.018420   0.067061  -0.021852
    13  O    0.108632   0.003226  -0.098173   0.007276  -0.013760  -0.006046
    14  O    0.021211  -0.009239  -0.039885   0.001307  -0.004143  -0.011440
    15  N    0.377357   0.000778  -0.247364   0.022648  -0.191672   0.063956
    16  O    0.036389   0.000641  -0.033681  -0.002258   0.025643  -0.006065
    17  O    0.055641   0.001448  -0.037446  -0.000265   0.005409  -0.018082
               7          8          9         10         11         12
     1  C   -0.574710  -0.235434  -0.023716  -0.021551   0.058996  -0.197924
     2  H   -0.027935  -0.000891  -0.000134  -0.000909  -0.016154   0.003699
     3  C    0.781015   0.053494   0.008550   0.004214  -0.020182   0.170684
     4  N    0.031697   0.145316  -0.016238  -0.028941  -0.044396  -0.018420
     5  N    0.029236   0.056821  -0.008141  -0.000214  -0.014268   0.067061
     6  N   -0.037847  -0.071409  -0.000803   0.003017   0.015684  -0.021852
     7  B    4.306895  -0.003213   0.000256  -0.000128   0.000919   0.217428
     8  C   -0.003213   5.261096   0.403587   0.409438   0.371528  -0.005202
     9  H    0.000256   0.403587   0.470541  -0.046130  -0.018824  -0.000266
    10  H   -0.000128   0.409438  -0.046130   0.472598  -0.019006  -0.000336
    11  H    0.000919   0.371528  -0.018824  -0.019006   0.492642   0.000346
    12  N    0.217428  -0.005202  -0.000266  -0.000336   0.000346   7.568654
    13  O   -0.127865   0.004481   0.000110   0.000096  -0.000311  -0.018573
    14  O   -0.142469   0.000944  -0.000014   0.000045   0.000105   0.070710
    15  N    0.027007   0.004209   0.000384   0.000405   0.000170  -0.444902
    16  O   -0.086672  -0.000741  -0.000032  -0.000046   0.000016   0.002617
    17  O   -0.130999  -0.000559  -0.000014  -0.000019  -0.000003   0.075019
              13         14         15         16         17
     1  C    0.108632   0.021211   0.377357   0.036389   0.055641
     2  H    0.003226  -0.009239   0.000778   0.000641   0.001448
     3  C   -0.098173  -0.039885  -0.247364  -0.033681  -0.037446
     4  N    0.007276   0.001307   0.022648  -0.002258  -0.000265
     5  N   -0.013760  -0.004143  -0.191672   0.025643   0.005409
     6  N   -0.006046  -0.011440   0.063956  -0.006065  -0.018082
     7  B   -0.127865  -0.142469   0.027007  -0.086672  -0.130999
     8  C    0.004481   0.000944   0.004209  -0.000741  -0.000559
     9  H    0.000110  -0.000014   0.000384  -0.000032  -0.000014
    10  H    0.000096   0.000045   0.000405  -0.000046  -0.000019
    11  H   -0.000311   0.000105   0.000170   0.000016  -0.000003
    12  N   -0.018573   0.070710  -0.444902   0.002617   0.075019
    13  O    8.163066  -0.114091   0.042253  -0.003705  -0.020583
    14  O   -0.114091   8.112373   0.085096  -0.007912  -0.012758
    15  N    0.042253   0.085096   7.632333   0.047874   0.076825
    16  O   -0.003705  -0.007912   0.047874   8.035251  -0.124630
    17  O   -0.020583  -0.012758   0.076825  -0.124630   8.052633
 Mulliken charges:
               1
     1  C   -0.289784
     2  H    0.284272
     3  C   -0.490642
     4  N    0.172577
     5  N    0.093825
     6  N   -0.118976
     7  B    0.737384
     8  C   -0.393465
     9  H    0.230884
    10  H    0.227467
    11  H    0.192739
    12  N   -0.468742
    13  O    0.073967
    14  O    0.050160
    15  N   -0.497359
    16  O    0.117309
    17  O    0.078384
 Sum of Mulliken charges =  -0.00000
 Mulliken charges with hydrogens summed into heavy atoms:
               1
     1  C   -0.005512
     3  C   -0.490642
     4  N    0.172577
     5  N    0.093825
     6  N   -0.118976
     7  B    0.737384
     8  C    0.257624
    12  N   -0.468742
    13  O    0.073967
    14  O    0.050160
    15  N   -0.497359
    16  O    0.117309
    17  O    0.078384
 Electronic spatial extent (au):  <R**2>=           7006.6563
 Charge=              0.0000 electrons
 Dipole moment (field-independent basis, Debye):
    X=             -4.9736    Y=              8.3188    Z=              0.3796  Tot=              9.6997
 Quadrupole moment (field-independent basis, Debye-Ang):
   XX=           -107.3281   YY=            -61.2769   ZZ=            -87.3021
   XY=             18.8522   XZ=             -4.6531   YZ=              6.0913
 Traceless Quadrupole moment (field-independent basis, Debye-Ang):
   XX=            -22.0258   YY=             24.0255   ZZ=             -1.9997
   XY=             18.8522   XZ=             -4.6531   YZ=              6.0913
 Octapole moment (field-independent basis, Debye-Ang**2):
  XXX=           -969.6160  YYY=             51.8768  ZZZ=           -295.4725  XYY=           -254.9661
  XXY=             49.4539  XXZ=           -124.3242  XZZ=           -312.4191  YZZ=             -3.0841
  YYZ=            -72.8034  XYZ=             10.1424
 Hexadecapole moment (field-independent basis, Debye-Ang**3):
 XXXX=          -7346.9074 YYYY=          -1210.4950 ZZZZ=          -1763.9051 XXXY=            521.7320
 XXXZ=          -1341.4624 YYYX=            455.2262 YYYZ=            162.4341 ZZZX=          -1291.1042
 ZZZY=            168.9440 XXYY=          -1316.1933 XXZZ=          -1539.9364 YYZZ=           -437.7522
 XXYZ=             37.9534 YYXZ=           -324.7355 ZZXY=             95.7676
 N-N= 7.697293465984D+02 E-N=-3.216634429981D+03  KE= 7.138413516397D+02
 Breneman (CHELPG) radii used.
 Generate Potential Derived Charges using the Breneman model, NDens= 1.
 Grid spacing= 0.300 Box extension= 2.800
 NStep X,Y,Z=   37     43     36   Total possible points=       57276
 Number of Points to Fit=   12373

 **********************************************************************

            Electrostatic Properties Using The SCF Density.

 **********************************************************************

       Atomic Center    1 is at   2.576476  1.626464  1.184571
       Atomic Center    2 is at   2.531384  2.108705  2.147546
       Atomic Center    3 is at   3.194132  0.457704  0.755828
       Atomic Center    4 is at   1.975305  2.109794  0.103405
       Atomic Center    5 is at   2.190345  1.300189 -0.967866
       Atomic Center    6 is at   2.911849  0.320160 -0.585969
       Atomic Center    7 is at   4.002970 -0.531649  1.521553
       Atomic Center    8 is at   1.176022  3.314442 -0.050693
       Atomic Center    9 is at   1.672272  3.989597 -0.746175
       Atomic Center   10 is at   0.193428  3.043635 -0.433274
       Atomic Center   11 is at   1.077457  3.790002  0.922757
       Atomic Center   12 is at   4.345195 -0.334205  2.995022
       Atomic Center   13 is at   3.464406 -0.530078  3.811120
       Atomic Center   14 is at   5.478076  0.033422  3.245088
       Atomic Center   15 is at   4.548935 -1.815839  0.917904
       Atomic Center   16 is at   5.607421 -1.767575  0.326537
       Atomic Center   17 is at   3.864956 -2.809251  1.086696
   12373 points will be used for fitting atomic charges
 Fitting point charges to electrostatic potential
 Charges from ESP fit, RMS=   0.00403 RRMS=   0.12301:
 ESP charges:
               1
     1  C   -0.380092
     2  H    0.222644
     3  C    0.267640
     4  N    0.658037
     5  N   -0.317305
     6  N   -0.265406
     7  B   -0.004277
     8  C   -0.574951
     9  H    0.197245
    10  H    0.197675
    11  H    0.212278
    12  N    0.833690
    13  O   -0.464294
    14  O   -0.456758
    15  N    0.712209
    16  O   -0.418689
    17  O   -0.419645
 Sum of ESP charges =  -0.00000
 ESP charges with hydrogens summed into heavy atoms:
               1
     1  C   -0.157448
     3  C    0.267640
     4  N    0.658037
     5  N   -0.317305
     6  N   -0.265406
     7  B   -0.004277
     8  C    0.032247
    12  N    0.833690
    13  O   -0.464294
    14  O   -0.456758
    15  N    0.712209
    16  O   -0.418689
    17  O   -0.419645
 Charge=  -0.00000 Dipole=    -5.0112     8.3203     0.2534 Tot=     9.7162
 -----------------------------------------------------------------

              Electrostatic Properties (Atomic Units)

 -----------------------------------------------------------------
    Center     Electric         -------- Electric Field --------
               Potential          X             Y             Z
 -----------------------------------------------------------------
    1 Atom    -14.656651
    2 Atom     -0.988252
    3 Atom    -14.708921
    4 Atom    -18.238547
    5 Atom    -18.305199
    6 Atom    -18.337153
    7 Atom    -11.330619
    8 Atom    -14.670406
    9 Atom     -1.038747
   10 Atom     -1.038886
   11 Atom     -1.025381
   12 Atom    -18.137761
   13 Atom    -22.305040
   14 Atom    -22.307269
   15 Atom    -18.150424
   16 Atom    -22.319913
   17 Atom    -22.319672
 -----------------------------------------------------------------
 Unable to Open any file for archive entry.
 1\1\GINC-IRENE6222\SP\RwB97XD\GenECP\C3H4B1N5O4\PENASFRA\08-Apr-2024\0
 \\# wb97xd/genecp scrf=(solvent=toluene,pcm) nosymm pop=(chelpg) scfcy
 c=300\\no2_metriazole_chelpg\\0,1\C,0,2.576476,1.626464,1.184571\H,0,2
 .531384,2.108705,2.147546\C,0,3.194132,0.457704,0.755828\N,0,1.975305,
 2.109794,0.103405\N,0,2.190345,1.300189,-0.967866\N,0,2.911849,0.32016
 ,-0.585969\B,0,4.00297,-0.531649,1.521553\C,0,1.176022,3.314442,-0.050
 693\H,0,1.672272,3.989597,-0.746175\H,0,0.193428,3.043635,-0.433274\H,
 0,1.077457,3.790002,0.922757\N,0,4.345195,-0.334205,2.995022\O,0,3.464
 406,-0.530078,3.81112\O,0,5.478076,0.033422,3.245088\N,0,4.548935,-1.8
 15839,0.917904\O,0,5.607421,-1.767575,0.326537\O,0,3.864956,-2.809251,
 1.086696\\Version=AS64L-G16RevC.02\HF=-716.0003732\RMSD=2.824e-09\Dipo
 le=-1.956759,3.2728835,0.1493301\Quadrupole=-16.3756129,17.8623722,-1.
 4867593,14.0161545,-3.4594491,4.5286983\PG=C01 [X(C3H4B1N5O4)]\\@
 The archive entry for this job was punched.


 IN THE LONG RUN, DIGGING FOR TRUTH HAS ALWAYS PROVED NOT ONLY 
 MORE INTERESTING BUT MORE PROFITABLE THAN DIGGING FOR GOLD.

                             -- GEORGE R. HARRISON
 Job cpu time:       0 days  0 hours 32 minutes  6.1 seconds.
 Elapsed time:       0 days  0 hours  0 minutes 20.7 seconds.
 File lengths (MBytes):  RWF=    108 Int=      0 D2E=      0 Chk=      7 Scr=      1
 Normal termination of Gaussian 16 at Mon Apr  8 16:07:48 2024.
