 Entering Gaussian System, Link 0=/ccc/products/gaussian-16-C.02/system/default/g16/g16
 Input=no2_quinoline_chelpg.gjf
 Output=no2_quinoline_chelpg.log
 Initial command:
 /ccc/products/gaussian-16-C.02/system/default/g16/l1.exe "/ccc/scratch/cont003/gen7343/penasfra/flp/b-n_flp/no2_quinoline/reac/Gau-156198.inp" -scrdir="/ccc/scratch/cont003/gen7343/penasfra/flp/b-n_flp/no2_quinoline/reac/"
 Entering Link 1 = /ccc/products/gaussian-16-C.02/system/default/g16/l1.exe PID=    156247.
  
 Copyright (c) 1988-2021, Gaussian, Inc.  All Rights Reserved.
  
 This is part of the Gaussian(R) 16 program.  It is based on
 the Gaussian(R) 09 system (copyright 2009, Gaussian, Inc.),
 the Gaussian(R) 03 system (copyright 2003, Gaussian, Inc.),
 the Gaussian(R) 98 system (copyright 1998, Gaussian, Inc.),
 the Gaussian(R) 94 system (copyright 1995, Gaussian, Inc.),
 the Gaussian 92(TM) system (copyright 1992, Gaussian, Inc.),
 the Gaussian 90(TM) system (copyright 1990, Gaussian, Inc.),
 the Gaussian 88(TM) system (copyright 1988, Gaussian, Inc.),
 the Gaussian 86(TM) system (copyright 1986, Carnegie Mellon
 University), and the Gaussian 82(TM) system (copyright 1983,
 Carnegie Mellon University). Gaussian is a federally registered
 trademark of Gaussian, Inc.
  
 This software contains proprietary and confidential information,
 including trade secrets, belonging to Gaussian, Inc.
  
 This software is provided under written license and may be
 used, copied, transmitted, or stored only in accord with that
 written license.
  
 The following legend is applicable only to US Government
 contracts under FAR:
  
                    RESTRICTED RIGHTS LEGEND
  
 Use, reproduction and disclosure by the US Government is
 subject to restrictions as set forth in subparagraphs (a)
 and (c) of the Commercial Computer Software - Restricted
 Rights clause in FAR 52.227-19.
  
 Gaussian, Inc.
 340 Quinnipiac St., Bldg. 40, Wallingford CT 06492
  
  
 ---------------------------------------------------------------
 Warning -- This program may not be used in any manner that
 competes with the business of Gaussian, Inc. or will provide
 assistance to any competitor of Gaussian, Inc.  The licensee
 of this program is prohibited from giving any competitor of
 Gaussian, Inc. access to this program.  By using this program,
 the user acknowledges that Gaussian, Inc. is engaged in the
 business of creating and licensing software in the field of
 computational chemistry and represents and warrants to the
 licensee that it is not a competitor of Gaussian, Inc. and that
 it will not use this program in any manner prohibited above.
 ---------------------------------------------------------------
  

 Cite this work as:
 Gaussian 16, Revision C.02,
 M. J. Frisch, G. W. Trucks, H. B. Schlegel, G. E. Scuseria, 
 M. A. Robb, J. R. Cheeseman, G. Scalmani, V. Barone, 
 G. A. Petersson, H. Nakatsuji, X. Li, M. Caricato, A. V. Marenich, 
 J. Bloino, B. G. Janesko, R. Gomperts, B. Mennucci, H. P. Hratchian, 
 J. V. Ortiz, A. F. Izmaylov, J. L. Sonnenberg, D. Williams-Young, 
 F. Ding, F. Lipparini, F. Egidi, J. Goings, B. Peng, A. Petrone, 
 T. Henderson, D. Ranasinghe, V. G. Zakrzewski, J. Gao, N. Rega, 
 G. Zheng, W. Liang, M. Hada, M. Ehara, K. Toyota, R. Fukuda, 
 J. Hasegawa, M. Ishida, T. Nakajima, Y. Honda, O. Kitao, H. Nakai, 
 T. Vreven, K. Throssell, J. A. Montgomery, Jr., J. E. Peralta, 
 F. Ogliaro, M. J. Bearpark, J. J. Heyd, E. N. Brothers, K. N. Kudin, 
 V. N. Staroverov, T. A. Keith, R. Kobayashi, J. Normand, 
 K. Raghavachari, A. P. Rendell, J. C. Burant, S. S. Iyengar, 
 J. Tomasi, M. Cossi, J. M. Millam, M. Klene, C. Adamo, R. Cammi, 
 J. W. Ochterski, R. L. Martin, K. Morokuma, O. Farkas, 
 J. B. Foresman, and D. J. Fox, Gaussian, Inc., Wallingford CT, 2019.
 
 ******************************************
 Gaussian 16:  AS64L-G16RevC.02  7-Dec-2021
                11-Apr-2024 
 ******************************************
 %nprocshared=128
 Will use up to  128 processors via shared memory.
 %mem=30GB
 %chk=no2_quinoline_chelpg.chk
 ----------------------------------------------------------------------
 # wb97xd/genecp scrf=(solvent=toluene,pcm) nosymm pop=(chelpg) scfcyc=
 300
 ----------------------------------------------------------------------
 1/38=1,172=1/1;
 2/12=2,15=1,17=6,18=5,40=1/2;
 3/5=7,11=2,16=1,17=8,25=1,30=1,70=2201,72=13,74=-58/1,2,3;
 4//1;
 5/5=2,7=300,38=5,53=13/2;
 6/7=2,8=2,9=2,10=2,15=8,20=3,28=1/1,2;
 99/5=1,9=1/99;
 --------------------
 no2_quinoline_chelpg
 --------------------
 Symbolic Z-matrix:
 Charge =  0 Multiplicity = 1
 C                    -4.00252   0.02769   0.29848 
 C                    -2.63512   0.05194   0.05091 
 C                    -1.97665   1.32113  -0.07258 
 C                    -2.734     2.51025   0.05891 
 C                    -4.12476   2.4251    0.30914 
 C                    -4.74852   1.20986   0.42748 
 H                    -4.52066  -0.91939   0.40412 
 C                    -2.05416   3.7447   -0.06862 
 H                    -4.69398   3.34384   0.40708 
 H                    -5.81239   1.15484   0.62048 
 C                    -0.70954   3.74071  -0.31044 
 C                    -0.04757   2.49812  -0.42405 
 H                    -2.60729   4.67296   0.02708 
 H                    -0.14876   4.66072  -0.41504 
 H                     1.02152   2.47238  -0.61548 
 N                    -0.64477   1.33621  -0.31262 
 B                    -1.88326  -1.25044  -0.07433 
 N                    -0.38816  -1.45923  -0.27583 
 N                    -2.61565  -2.59298   0.00576 
 O                     0.02397  -1.57132  -1.41213 
 O                     0.27741  -1.55189   0.73885 
 O                    -2.84923  -3.04419   1.11183 
 O                    -2.93076  -3.10966  -1.05046 
 
                          Input orientation:                          
 ---------------------------------------------------------------------
 Center     Atomic      Atomic             Coordinates (Angstroms)
 Number     Number       Type             X           Y           Z
 ---------------------------------------------------------------------
      1          6           0       -4.002519    0.027693    0.298477
      2          6           0       -2.635124    0.051942    0.050905
      3          6           0       -1.976654    1.321131   -0.072575
      4          6           0       -2.733996    2.510252    0.058910
      5          6           0       -4.124764    2.425097    0.309144
      6          6           0       -4.748518    1.209857    0.427475
      7          1           0       -4.520661   -0.919385    0.404115
      8          6           0       -2.054160    3.744701   -0.068622
      9          1           0       -4.693979    3.343843    0.407083
     10          1           0       -5.812385    1.154835    0.620482
     11          6           0       -0.709542    3.740710   -0.310443
     12          6           0       -0.047568    2.498122   -0.424051
     13          1           0       -2.607292    4.672962    0.027082
     14          1           0       -0.148758    4.660722   -0.415044
     15          1           0        1.021519    2.472379   -0.615484
     16          7           0       -0.644773    1.336205   -0.312618
     17          5           0       -1.883260   -1.250437   -0.074330
     18          7           0       -0.388159   -1.459227   -0.275832
     19          7           0       -2.615647   -2.592980    0.005758
     20          8           0        0.023966   -1.571317   -1.412134
     21          8           0        0.277409   -1.551885    0.738845
     22          8           0       -2.849231   -3.044192    1.111831
     23          8           0       -2.930760   -3.109659   -1.050459
 ---------------------------------------------------------------------
                    Distance matrix (angstroms):
                    1          2          3          4          5
     1  C    0.000000
     2  C    1.389838   0.000000
     3  C    2.432034   1.435155   0.000000
     4  C    2.798150   2.460311   1.415932   0.000000
     5  C    2.400542   2.813819   2.445164   1.415664   0.000000
     6  C    1.403804   2.439058   2.818805   2.425936   1.371087
     7  H    1.084706   2.150229   3.423320   3.882493   3.369171
     8  C    4.212720   3.740090   2.424812   1.415029   2.484243
     9  H    3.389213   3.899020   3.421300   2.158155   1.085215
    10  H    2.156328   3.411126   3.901386   3.410132   2.135079
    11  C    5.000098   4.176775   2.741627   2.397679   3.711936
    12  C    4.718761   3.592329   2.286967   2.729523   4.143240
    13  H    4.857863   4.621165   3.412097   2.166652   2.726752
    14  H    6.068405   5.257374   3.822480   3.395970   4.618559
    15  H    5.661517   4.435496   3.257171   3.815774   5.228901
    16  N    3.655147   2.396451   1.353423   2.425133   3.699001
    17  B    2.502770   1.509031   2.573264   3.858016   4.322146
    18  N    3.950235   2.727497   3.208585   4.622961   5.421475
    19  N    2.979434   2.645379   3.966701   5.104881   5.248864
    20  O    4.657854   3.441833   3.763397   5.140966   6.012161
    21  O    4.583315   3.395345   3.740778   5.102140   5.948122
    22  O    3.380547   3.279855   4.606545   5.654535   5.673131
    23  O    3.579284   3.360971   4.636645   5.731738   5.823031
                    6          7          8          9         10
     6  C    0.000000
     7  H    2.141527   0.000000
     8  C    3.732440   5.297245   0.000000
     9  H    2.134780   4.266751   2.712126   0.000000
    10  H    1.082632   2.453111   4.615899   2.467413   0.000000
    11  C    4.823180   6.062319   1.366196   4.067934   5.795893
    12  C    4.948096   5.689796   2.388870   4.795327   6.010706
    13  H    4.091242   5.922624   1.084796   2.503042   4.796036
    14  H    5.811721   7.135976   2.142349   4.803030   6.740937
    15  H    5.997921   6.577188   3.373079   5.871287   7.068648
    16  N    4.171861   4.541354   2.801207   4.576532   5.254311
    17  B    3.809798   2.700813   4.998064   5.407338   4.658983
    18  N    5.160560   4.222716   5.468031   6.486597   6.087604
    19  N    4.380474   2.566844   6.362940   6.302888   4.964185
    20  O    5.822001   4.937349   5.863760   7.051762   6.754734
    21  O    5.743180   4.851142   5.843119   6.985193   6.665278
    22  O    4.708776   2.794521   6.936474   6.686311   5.162706
    23  O    4.913934   3.072600   6.979590   6.846974   5.411258
                   11         12         13         14         15
    11  C    0.000000
    12  C    1.412495   0.000000
    13  H    2.141138   3.389047   0.000000
    14  H    1.082517   2.164985   2.498002   0.000000
    15  H    2.167553   1.086396   4.292287   2.489693   0.000000
    16  N    2.405378   1.311153   3.885978   3.362876   2.039399
    17  B    5.132729   4.188528   5.968347   6.169796   4.752888
    18  N    5.209974   3.974743   6.528403   6.126212   4.190475
    19  N    6.621846   5.718311   7.265978   7.673253   6.266800
    20  O    5.474430   4.188288   6.927184   6.313662   4.240429
    21  O    5.485129   4.226168   6.897596   6.333211   4.310755
    22  O    7.255069   6.397304   7.796774   8.305998   6.956930
    23  O    7.239405   6.336591   7.863518   8.277808   6.853383
                   16         17         18         19         20
    16  N    0.000000
    17  B    2.877733   0.000000
    18  N    2.807427   1.522998   0.000000
    19  N    4.407290   1.531413   2.515232   0.000000
    20  O    3.179596   2.351637   1.213917   3.165718   0.000000
    21  O    3.208903   2.328221   1.217019   3.160865   2.165946
    22  O    5.106522   2.357464   3.239537   1.217190   4.098173
    23  O    5.053301   2.346655   3.128705   1.217312   3.350778
                   21         22         23
    21  O    0.000000
    22  O    3.484534   0.000000
    23  O    3.990065   2.164817   0.000000
 Symmetry turned off by external request.
 Stoichiometry    C9H6BN3O4
 Framework group  C1[X(C9H6BN3O4)]
 Deg. of freedom    63
 Full point group                 C1      NOp   1
 Rotational constants (GHZ):           0.7886570           0.3952315           0.2855095
 General basis read from cards:  (5D, 7F)
 ======================================================================================================
                                       Pseudopotential Parameters
 ======================================================================================================
  Center     Atomic      Valence      Angular      Power
  Number     Number     Electrons     Momentum     of R      Exponent        Coefficient   SO-Coeffient
 ======================================================================================================
    1          6
                                   No pseudopotential on this center.
    2          6
                                   No pseudopotential on this center.
    3          6
                                   No pseudopotential on this center.
    4          6
                                   No pseudopotential on this center.
    5          6
                                   No pseudopotential on this center.
    6          6
                                   No pseudopotential on this center.
    7          1
                                   No pseudopotential on this center.
    8          6
                                   No pseudopotential on this center.
    9          1
                                   No pseudopotential on this center.
   10          1
                                   No pseudopotential on this center.
   11          6
                                   No pseudopotential on this center.
   12          6
                                   No pseudopotential on this center.
   13          1
                                   No pseudopotential on this center.
   14          1
                                   No pseudopotential on this center.
   15          1
                                   No pseudopotential on this center.
   16          7
                                   No pseudopotential on this center.
   17          5
                                   No pseudopotential on this center.
   18          7
                                   No pseudopotential on this center.
   19          7
                                   No pseudopotential on this center.
   20          8
                                   No pseudopotential on this center.
   21          8
                                   No pseudopotential on this center.
   22          8
                                   No pseudopotential on this center.
   23          8
                                   No pseudopotential on this center.
 ======================================================================================================
   416 basis functions,   666 primitive gaussians,   433 cartesian basis functions
    59 alpha electrons       59 beta electrons
       nuclear repulsion energy      1131.9314335366 Hartrees.
 NAtoms=   23 NActive=   23 NUniq=   23 SFac= 1.00D+00 NAtFMM=   60 NAOKFM=F Big=F
 Integral buffers will be    131072 words long.
 Raffenetti 2 integral format.
 Two-electron integral symmetry is turned off.
 Nuclear repulsion after empirical dispersion term =     1131.9168199289 Hartrees.
 ------------------------------------------------------------------------------
 Polarizable Continuum Model (PCM)
 =================================
 Model                : PCM.
 Atomic radii         : UFF (Universal Force Field).
 Polarization charges : Total charges.
 Charge compensation  : None.
 Solution method      : On-the-fly selection.
 Cavity type          : Scaled VdW (van der Waals Surface) (Alpha=1.100).
 Cavity algorithm     : GePol (No added spheres)
                        Default sphere list used, NSphG=   23.
                        Lebedev-Laikov grids with approx.  5.0 points / Ang**2.
                        Smoothing algorithm: York/Karplus (Gamma=1.0000).
                        Polarization charges: spherical gaussians, with
                                              point-specific exponents (IZeta= 3).
                        Self-potential: point-specific (ISelfS= 7).
                        Self-field    : sphere-specific E.n sum rule (ISelfD= 2).
 Solvent              : Toluene, Eps=   2.374100 Eps(inf)=   2.238315
 ------------------------------------------------------------------------------
 One-electron integrals computed using PRISM.
   1 Symmetry operations used in ECPInt.
 ECPInt:  NShTT=    8778 NPrTT=   35040 LenC2=    8107 LenP2D=   21719.
 LDataN:  DoStor=T MaxTD1= 4 Len=   56
 Number of processors reduced to 115 by ecpmxn.
 NBasis=   416 RedAO= T EigKep=  1.59D-06  NBF=   416
 NBsUse=   413 1.00D-06 EigRej=  7.57D-07 NBFU=   413
 ExpMin= 3.15D-02 ExpMax= 8.59D+03 ExpMxC= 1.30D+03 IAcc=3 IRadAn=         5 AccDes= 0.00D+00
 Harris functional with IExCor= 4639 and IRadAn=       5 diagonalized for initial guess.
 HarFok:  IExCor= 4639 AccDes= 0.00D+00 IRadAn=         5 IDoV= 1 UseB2=F ITyADJ=14
 ICtDFT=  3500011 ScaDFX=  1.000000  1.000000  1.000000  1.000000
 FoFCou: FMM=F IPFlag=           0 FMFlag=      100000 FMFlg1=           0
         NFxFlg=           0 DoJE=T BraDBF=F KetDBF=T FulRan=T
         wScrn=  0.000000 ICntrl=       500 IOpCl=  0 I1Cent=   200000004 NGrid=           0
         NMat0=    1 NMatS0=      1 NMatT0=    0 NMatD0=    1 NMtDS0=    0 NMtDT0=    0
 Symmetry not used in FoFCou.
 Requested convergence on RMS density matrix=1.00D-08 within 300 cycles.
 Requested convergence on MAX density matrix=1.00D-06.
 Requested convergence on             energy=1.00D-06.
 No special actions if energy rises.
 Inv3:  Mode=1 IEnd=    13597923.
 Iteration    1 A*A^-1 deviation from unit magnitude is 3.77D-15 for   2114.
 Iteration    1 A*A^-1 deviation from orthogonality  is 2.05D-15 for   1586   1352.
 Iteration    1 A^-1*A deviation from unit magnitude is 3.89D-15 for   2114.
 Iteration    1 A^-1*A deviation from orthogonality  is 1.33D-15 for   1681    384.
 Error on total polarization charges =  0.01035
 SCF Done:  E(RwB97XD) =  -836.362832070     A.U. after   18 cycles
            NFock= 18  Conv=0.28D-08     -V/T= 2.0034

 **********************************************************************

            Population analysis using the SCF Density.

 **********************************************************************

 Alpha  occ. eigenvalues --  -19.31594 -19.31574 -19.30767 -19.30748 -14.68493
 Alpha  occ. eigenvalues --  -14.67885 -14.45563 -10.36466 -10.35172 -10.34414
 Alpha  occ. eigenvalues --  -10.33884 -10.33535 -10.33413 -10.32413 -10.32367
 Alpha  occ. eigenvalues --  -10.31993  -6.97125  -1.37075  -1.36038  -1.19618
 Alpha  occ. eigenvalues --   -1.18870  -1.08450  -0.99334  -0.94517  -0.89396
 Alpha  occ. eigenvalues --   -0.88927  -0.86353  -0.80546  -0.77404  -0.75917
 Alpha  occ. eigenvalues --   -0.73977  -0.69001  -0.67495  -0.66574  -0.65060
 Alpha  occ. eigenvalues --   -0.63515  -0.63433  -0.63326  -0.62732  -0.62588
 Alpha  occ. eigenvalues --   -0.57741  -0.55823  -0.55002  -0.54143  -0.52695
 Alpha  occ. eigenvalues --   -0.51642  -0.47984  -0.46951  -0.46617  -0.44149
 Alpha  occ. eigenvalues --   -0.43173  -0.42326  -0.41876  -0.41401  -0.40979
 Alpha  occ. eigenvalues --   -0.39771  -0.36990  -0.35967  -0.34834
 Alpha virt. eigenvalues --   -0.05977  -0.03648  -0.00999   0.00190   0.01418
 Alpha virt. eigenvalues --    0.03345   0.04305   0.05342   0.06560   0.06872
 Alpha virt. eigenvalues --    0.07261   0.08074   0.08136   0.08886   0.09428
 Alpha virt. eigenvalues --    0.11076   0.11574   0.12293   0.12664   0.12863
 Alpha virt. eigenvalues --    0.14061   0.14378   0.15070   0.15545   0.15782
 Alpha virt. eigenvalues --    0.16153   0.16800   0.16983   0.17169   0.17350
 Alpha virt. eigenvalues --    0.17505   0.18776   0.18975   0.19405   0.19871
 Alpha virt. eigenvalues --    0.20269   0.20421   0.21017   0.21614   0.22048
 Alpha virt. eigenvalues --    0.22437   0.22664   0.23076   0.24210   0.24347
 Alpha virt. eigenvalues --    0.24566   0.25193   0.25310   0.25690   0.26330
 Alpha virt. eigenvalues --    0.26906   0.27676   0.28218   0.28813   0.29318
 Alpha virt. eigenvalues --    0.29668   0.30191   0.30634   0.30930   0.31784
 Alpha virt. eigenvalues --    0.32129   0.32248   0.32785   0.33006   0.33358
 Alpha virt. eigenvalues --    0.33767   0.33984   0.34545   0.35488   0.35790
 Alpha virt. eigenvalues --    0.36525   0.36726   0.37496   0.37786   0.38164
 Alpha virt. eigenvalues --    0.38327   0.38480   0.38972   0.39619   0.40289
 Alpha virt. eigenvalues --    0.40374   0.41037   0.41414   0.42175   0.43561
 Alpha virt. eigenvalues --    0.43965   0.44660   0.44999   0.45568   0.46069
 Alpha virt. eigenvalues --    0.46636   0.47828   0.48453   0.49404   0.50123
 Alpha virt. eigenvalues --    0.53855   0.54259   0.55588   0.55749   0.56308
 Alpha virt. eigenvalues --    0.56630   0.57158   0.58945   0.59917   0.60737
 Alpha virt. eigenvalues --    0.61564   0.62291   0.62628   0.64271   0.64434
 Alpha virt. eigenvalues --    0.65846   0.65928   0.66548   0.67065   0.68043
 Alpha virt. eigenvalues --    0.68860   0.69144   0.71083   0.71898   0.72564
 Alpha virt. eigenvalues --    0.76327   0.76645   0.77737   0.79071   0.80211
 Alpha virt. eigenvalues --    0.81393   0.82694   0.82876   0.84222   0.85454
 Alpha virt. eigenvalues --    0.86307   0.87225   0.87959   0.89853   0.90217
 Alpha virt. eigenvalues --    0.91181   0.92724   0.93380   0.94083   0.96062
 Alpha virt. eigenvalues --    0.96340   0.97531   0.99362   0.99669   0.99873
 Alpha virt. eigenvalues --    1.00068   1.02367   1.02757   1.03686   1.04226
 Alpha virt. eigenvalues --    1.05270   1.07297   1.08048   1.09247   1.09890
 Alpha virt. eigenvalues --    1.11928   1.12318   1.12801   1.13161   1.13802
 Alpha virt. eigenvalues --    1.15121   1.15233   1.16303   1.18204   1.18817
 Alpha virt. eigenvalues --    1.19805   1.20670   1.22393   1.23405   1.23779
 Alpha virt. eigenvalues --    1.25264   1.26305   1.27636   1.29537   1.30464
 Alpha virt. eigenvalues --    1.30976   1.31679   1.36199   1.36707   1.38563
 Alpha virt. eigenvalues --    1.39936   1.41652   1.43607   1.44788   1.47394
 Alpha virt. eigenvalues --    1.51184   1.53032   1.55601   1.56755   1.58993
 Alpha virt. eigenvalues --    1.61043   1.62220   1.62980   1.65018   1.65061
 Alpha virt. eigenvalues --    1.67048   1.70124   1.71785   1.73416   1.75222
 Alpha virt. eigenvalues --    1.75861   1.77401   1.78221   1.79291   1.80096
 Alpha virt. eigenvalues --    1.80599   1.81699   1.82803   1.83788   1.85944
 Alpha virt. eigenvalues --    1.87682   1.88985   1.89994   1.91334   1.95312
 Alpha virt. eigenvalues --    1.96277   1.97144   1.97576   1.99057   2.01004
 Alpha virt. eigenvalues --    2.01854   2.02542   2.03946   2.04963   2.07963
 Alpha virt. eigenvalues --    2.10640   2.11637   2.15107   2.20679   2.21624
 Alpha virt. eigenvalues --    2.23855   2.24089   2.26499   2.29041   2.29555
 Alpha virt. eigenvalues --    2.31842   2.33827   2.35580   2.37282   2.37895
 Alpha virt. eigenvalues --    2.40741   2.41923   2.45045   2.50166   2.51609
 Alpha virt. eigenvalues --    2.51976   2.54944   2.57333   2.61785   2.64652
 Alpha virt. eigenvalues --    2.65754   2.73179   2.74812   2.75645   2.77448
 Alpha virt. eigenvalues --    2.78669   2.80566   2.80939   2.81593   2.81763
 Alpha virt. eigenvalues --    2.82885   2.83560   2.84330   2.85600   2.86106
 Alpha virt. eigenvalues --    2.86980   2.88064   2.88492   2.89521   2.89822
 Alpha virt. eigenvalues --    2.92297   2.92835   2.94764   2.95787   2.96048
 Alpha virt. eigenvalues --    2.99077   2.99277   3.00978   3.02380   3.07502
 Alpha virt. eigenvalues --    3.08604   3.11706   3.12652   3.16746   3.20444
 Alpha virt. eigenvalues --    3.22427   3.30999   3.32110   3.34459   3.34976
 Alpha virt. eigenvalues --    3.42165   3.44480   3.46308   3.47607   3.48168
 Alpha virt. eigenvalues --    3.50359   3.53119   3.56547   3.57820   3.59431
 Alpha virt. eigenvalues --    3.61548   3.61912   3.64149   3.65848   3.74444
 Alpha virt. eigenvalues --    3.83562   3.86526   3.92345   3.98167   3.99797
 Alpha virt. eigenvalues --    4.04459   4.07825   4.09505   4.11596   4.15023
 Alpha virt. eigenvalues --    4.23187   4.28471   4.52183   4.58335   4.59800
 Alpha virt. eigenvalues --    4.60947   4.63245   4.65811   4.90622   5.08190
 Alpha virt. eigenvalues --    5.09578   5.11595   5.14182   5.16465   5.19048
 Alpha virt. eigenvalues --    5.27507   5.29605   5.35136   5.70271   5.73282
 Alpha virt. eigenvalues --    6.33345   6.35024  14.76432  23.71190  23.94292
 Alpha virt. eigenvalues --   24.05200  24.06084  24.12128  24.13408  24.18137
 Alpha virt. eigenvalues --   24.27759  24.28680  35.50420  35.55740  35.82769
 Alpha virt. eigenvalues --   50.01341  50.03618  50.08554  50.11554
          Condensed to atoms (all electrons):
               1          2          3          4          5          6
     1  C   11.956651  -2.606815  -1.074611   1.249990  -3.147269   0.264042
     2  C   -2.606815  12.647228   2.546924  -2.267819   1.130323  -3.711160
     3  C   -1.074611   2.546924   9.983615   0.884610   0.291217  -1.106655
     4  C    1.249990  -2.267819   0.884610  12.710490  -3.074423  -0.702547
     5  C   -3.147269   1.130323   0.291217  -3.074423   9.390709   0.932777
     6  C    0.264042  -3.711160  -1.106655  -0.702547   0.932777  10.204061
     7  H    0.445031  -0.125002   0.019565   0.013055   0.010369  -0.029617
     8  C   -0.497232  -1.964720  -5.602483  -3.453151   1.062458   0.561400
     9  H   -0.057153   0.029473   0.068553  -0.030793   0.452672  -0.074255
    10  H    0.035208   0.002248  -0.010577   0.003112  -0.114072   0.406974
    11  C    0.316073   0.441289   2.289079   0.968695  -0.773696  -0.276020
    12  C   -0.358682  -0.404298  -1.699288  -0.697785   0.273429   0.168755
    13  H    0.013742  -0.014742  -0.039935  -0.069076   0.027158   0.020359
    14  H    0.007040  -0.006507  -0.021627  -0.000909  -0.004586   0.001256
    15  H    0.000997   0.011265  -0.006468  -0.005879  -0.012654   0.005051
    16  N   -0.165868  -0.132723   0.358101  -0.083777   0.036320  -0.074404
    17  B   -0.346686   0.708042   0.129414  -0.128308   0.062135  -0.127862
    18  N    0.574432  -0.515299  -0.171087  -0.091096   0.004791   0.214869
    19  N   -0.625648   0.693639   0.177762   0.139728  -0.075867  -0.361139
    20  O    0.006600   0.013824  -0.004729   0.039009  -0.012008  -0.004423
    21  O    0.035294  -0.007633   0.014242   0.028609  -0.009833  -0.000867
    22  O    0.084839  -0.148334  -0.027267  -0.010583   0.016866   0.102868
    23  O    0.023411  -0.043616  -0.017489   0.003434   0.005525   0.044076
               7          8          9         10         11         12
     1  C    0.445031  -0.497232  -0.057153   0.035208   0.316073  -0.358682
     2  C   -0.125002  -1.964720   0.029473   0.002248   0.441289  -0.404298
     3  C    0.019565  -5.602483   0.068553  -0.010577   2.289079  -1.699288
     4  C    0.013055  -3.453151  -0.030793   0.003112   0.968695  -0.697785
     5  C    0.010369   1.062458   0.452672  -0.114072  -0.773696   0.273429
     6  C   -0.029617   0.561400  -0.074255   0.406974  -0.276020   0.168755
     7  H    0.495243  -0.038698   0.004199  -0.013322   0.011078  -0.018412
     8  C   -0.038698  16.063606  -0.064709   0.011171  -3.243217   1.904657
     9  H    0.004199  -0.064709   0.436202  -0.012888   0.051340  -0.016751
    10  H   -0.013322   0.011171  -0.012888   0.434305  -0.000405   0.000907
    11  C    0.011078  -3.243217   0.051340  -0.000405   8.803254  -2.069938
    12  C   -0.018412   1.904657  -0.016751   0.000907  -2.069938   8.343381
    13  H   -0.000094   0.438509  -0.001308   0.000639  -0.094108   0.018322
    14  H    0.000070   0.037575  -0.000134  -0.000052   0.353761  -0.041077
    15  H   -0.000612  -0.022726  -0.000439   0.000080  -0.122704   0.527114
    16  N   -0.002948   0.037194  -0.001418  -0.001529   0.048700   0.056126
    17  B   -0.041422  -0.004194  -0.001081   0.001557  -0.014422   0.011147
    18  N    0.014750  -0.031161   0.000514   0.000721  -0.009928   0.018552
    19  N   -0.039628   0.046996  -0.001151   0.001065  -0.008788   0.000714
    20  O   -0.002940  -0.004725  -0.000279   0.000438   0.021190  -0.032621
    21  O   -0.000606  -0.003262  -0.000202   0.000325   0.018891  -0.037807
    22  O    0.038374  -0.002281   0.000370  -0.001547  -0.000625   0.000828
    23  O   -0.015721  -0.000949   0.000087   0.000237  -0.000401   0.000804
              13         14         15         16         17         18
     1  C    0.013742   0.007040   0.000997  -0.165868  -0.346686   0.574432
     2  C   -0.014742  -0.006507   0.011265  -0.132723   0.708042  -0.515299
     3  C   -0.039935  -0.021627  -0.006468   0.358101   0.129414  -0.171087
     4  C   -0.069076  -0.000909  -0.005879  -0.083777  -0.128308  -0.091096
     5  C    0.027158  -0.004586  -0.012654   0.036320   0.062135   0.004791
     6  C    0.020359   0.001256   0.005051  -0.074404  -0.127862   0.214869
     7  H   -0.000094   0.000070  -0.000612  -0.002948  -0.041422   0.014750
     8  C    0.438509   0.037575  -0.022726   0.037194  -0.004194  -0.031161
     9  H   -0.001308  -0.000134  -0.000439  -0.001418  -0.001081   0.000514
    10  H    0.000639  -0.000052   0.000080  -0.001529   0.001557   0.000721
    11  C   -0.094108   0.353761  -0.122704   0.048700  -0.014422  -0.009928
    12  C    0.018322  -0.041077   0.527114   0.056126   0.011147   0.018552
    13  H    0.435058  -0.000944   0.001018   0.003986   0.000857   0.000577
    14  H   -0.000944   0.416559   0.000542   0.012144  -0.000491  -0.000150
    15  H    0.001018   0.000542   0.450201  -0.088630  -0.004435   0.004732
    16  N    0.003986   0.012144  -0.088630   6.884774   0.064078  -0.106109
    17  B    0.000857  -0.000491  -0.004435   0.064078   4.250690   0.132594
    18  N    0.000577  -0.000150   0.004732  -0.106109   0.132594   8.076653
    19  N   -0.000050  -0.000077   0.000191   0.034952   0.149252  -0.803684
    20  O   -0.000153   0.000344  -0.002794   0.005030  -0.119615   0.015157
    21  O   -0.000101   0.000181  -0.003205  -0.033440  -0.150122   0.165484
    22  O   -0.000027  -0.000018   0.000139  -0.006606  -0.107740   0.049608
    23  O   -0.000040  -0.000013   0.000137  -0.005443  -0.124751   0.067507
              19         20         21         22         23
     1  C   -0.625648   0.006600   0.035294   0.084839   0.023411
     2  C    0.693639   0.013824  -0.007633  -0.148334  -0.043616
     3  C    0.177762  -0.004729   0.014242  -0.027267  -0.017489
     4  C    0.139728   0.039009   0.028609  -0.010583   0.003434
     5  C   -0.075867  -0.012008  -0.009833   0.016866   0.005525
     6  C   -0.361139  -0.004423  -0.000867   0.102868   0.044076
     7  H   -0.039628  -0.002940  -0.000606   0.038374  -0.015721
     8  C    0.046996  -0.004725  -0.003262  -0.002281  -0.000949
     9  H   -0.001151  -0.000279  -0.000202   0.000370   0.000087
    10  H    0.001065   0.000438   0.000325  -0.001547   0.000237
    11  C   -0.008788   0.021190   0.018891  -0.000625  -0.000401
    12  C    0.000714  -0.032621  -0.037807   0.000828   0.000804
    13  H   -0.000050  -0.000153  -0.000101  -0.000027  -0.000040
    14  H   -0.000077   0.000344   0.000181  -0.000018  -0.000013
    15  H    0.000191  -0.002794  -0.003205   0.000139   0.000137
    16  N    0.034952   0.005030  -0.033440  -0.006606  -0.005443
    17  B    0.149252  -0.119615  -0.150122  -0.107740  -0.124751
    18  N   -0.803684   0.015157   0.165484   0.049608   0.067507
    19  N    8.276826   0.052348   0.051713  -0.131164   0.049734
    20  O    0.052348   8.033678  -0.139478   0.000080  -0.008412
    21  O    0.051713  -0.139478   7.957910  -0.011369   0.000947
    22  O   -0.131164   0.000080  -0.011369   8.142842  -0.123906
    23  O    0.049734  -0.008412   0.000947  -0.123906   8.027867
 Mulliken charges:
               1
     1  C   -0.133385
     2  C   -0.275586
     3  C   -0.980866
     4  C    0.575415
     5  C   -0.472340
     6  C   -0.457539
     7  H    0.277288
     8  C    0.769944
     9  H    0.219153
    10  H    0.255407
    11  C   -0.709096
    12  C    0.051922
    13  H    0.260352
    14  H    0.247112
    15  H    0.269080
    16  N    0.161491
    17  B    0.661362
    18  N   -0.612427
    19  N   -0.627723
    20  O    0.144479
    21  O    0.124328
    22  O    0.134653
    23  O    0.116975
 Sum of Mulliken charges =  -0.00000
 Mulliken charges with hydrogens summed into heavy atoms:
               1
     1  C    0.143903
     2  C   -0.275586
     3  C   -0.980866
     4  C    0.575415
     5  C   -0.253187
     6  C   -0.202131
     8  C    1.030296
    11  C   -0.461984
    12  C    0.321003
    16  N    0.161491
    17  B    0.661362
    18  N   -0.612427
    19  N   -0.627723
    20  O    0.144479
    21  O    0.124328
    22  O    0.134653
    23  O    0.116975
 Electronic spatial extent (au):  <R**2>=           5335.7253
 Charge=              0.0000 electrons
 Dipole moment (field-independent basis, Debye):
    X=             -4.1075    Y=              9.4021    Z=              0.6375  Tot=             10.2799
 Quadrupole moment (field-independent basis, Debye-Ang):
   XX=            -73.7829   YY=            -86.6010   ZZ=           -104.3750
   XY=            -18.2043   XZ=             -3.4960   YZ=             -1.0528
 Traceless Quadrupole moment (field-independent basis, Debye-Ang):
   XX=             14.4701   YY=              1.6520   ZZ=            -16.1220
   XY=            -18.2043   XZ=             -3.4960   YZ=             -1.0528
 Octapole moment (field-independent basis, Debye-Ang**2):
  XXX=            452.8497  YYY=             60.5395  ZZZ=             18.1152  XYY=            189.4802
  XXY=             55.4422  XXZ=             22.5706  XZZ=            208.5537  YZZ=            -19.7646
  YYZ=              3.6873  XYZ=             -6.1639
 Hexadecapole moment (field-independent basis, Debye-Ang**3):
 XXXX=          -3076.3955 YYYY=          -2790.2804 ZZZZ=           -306.6219 XXXY=           -131.4036
 XXXZ=            -29.6583 YYYX=           -157.3678 YYYZ=             -6.2698 ZZZX=             81.1250
 ZZZY=              1.2198 XXYY=          -1097.0493 XXZZ=           -736.0735 YYZZ=           -623.1308
 XXYZ=             23.3601 YYXZ=              4.2313 ZZXY=             48.8445
 N-N= 1.131916819929D+03 E-N=-4.218994123718D+03  KE= 8.335604744645D+02
 Breneman (CHELPG) radii used.
 Generate Potential Derived Charges using the Breneman model, NDens= 1.
 Grid spacing= 0.300 Box extension= 2.800
 NStep X,Y,Z=   43     46     29   Total possible points=       57362
 Number of Points to Fit=   15111

 **********************************************************************

            Electrostatic Properties Using The SCF Density.

 **********************************************************************

       Atomic Center    1 is at  -4.002519  0.027693  0.298477
       Atomic Center    2 is at  -2.635124  0.051942  0.050905
       Atomic Center    3 is at  -1.976654  1.321131 -0.072575
       Atomic Center    4 is at  -2.733996  2.510252  0.058910
       Atomic Center    5 is at  -4.124764  2.425097  0.309144
       Atomic Center    6 is at  -4.748518  1.209857  0.427475
       Atomic Center    7 is at  -4.520661 -0.919385  0.404115
       Atomic Center    8 is at  -2.054160  3.744701 -0.068622
       Atomic Center    9 is at  -4.693979  3.343843  0.407083
       Atomic Center   10 is at  -5.812385  1.154835  0.620482
       Atomic Center   11 is at  -0.709542  3.740710 -0.310443
       Atomic Center   12 is at  -0.047568  2.498122 -0.424051
       Atomic Center   13 is at  -2.607292  4.672962  0.027082
       Atomic Center   14 is at  -0.148758  4.660722 -0.415044
       Atomic Center   15 is at   1.021519  2.472379 -0.615484
       Atomic Center   16 is at  -0.644773  1.336205 -0.312618
       Atomic Center   17 is at  -1.883260 -1.250437 -0.074330
       Atomic Center   18 is at  -0.388159 -1.459227 -0.275832
       Atomic Center   19 is at  -2.615647 -2.592980  0.005758
       Atomic Center   20 is at   0.023966 -1.571317 -1.412134
       Atomic Center   21 is at   0.277409 -1.551885  0.738845
       Atomic Center   22 is at  -2.849231 -3.044192  1.111831
       Atomic Center   23 is at  -2.930760 -3.109659 -1.050459
   15111 points will be used for fitting atomic charges
 Fitting point charges to electrostatic potential
 Charges from ESP fit, RMS=   0.00400 RRMS=   0.14570:
 ESP charges:
               1
     1  C   -0.102862
     2  C   -0.193520
     3  C    0.401108
     4  C    0.040623
     5  C   -0.176230
     6  C   -0.033983
     7  H    0.149864
     8  C   -0.063678
     9  H    0.152459
    10  H    0.110795
    11  C   -0.237495
    12  C    0.299604
    13  H    0.134530
    14  H    0.139588
    15  H    0.065807
    16  N   -0.522507
    17  B    0.131711
    18  N    0.770922
    19  N    0.784114
    20  O   -0.459499
    21  O   -0.463897
    22  O   -0.464262
    23  O   -0.463192
 Sum of ESP charges =  -0.00000
 ESP charges with hydrogens summed into heavy atoms:
               1
     1  C    0.047003
     2  C   -0.193520
     3  C    0.401108
     4  C    0.040623
     5  C   -0.023771
     6  C    0.076811
     8  C    0.070852
    11  C   -0.097906
    12  C    0.365410
    16  N   -0.522507
    17  B    0.131711
    18  N    0.770922
    19  N    0.784114
    20  O   -0.459499
    21  O   -0.463897
    22  O   -0.464262
    23  O   -0.463192
 Charge=  -0.00000 Dipole=    -4.1840     9.5516     0.6402 Tot=    10.4474
 -----------------------------------------------------------------

              Electrostatic Properties (Atomic Units)

 -----------------------------------------------------------------
    Center     Electric         -------- Electric Field --------
               Potential          X             Y             Z
 -----------------------------------------------------------------
    1 Atom    -14.711773
    2 Atom    -14.735558
    3 Atom    -14.692380
    4 Atom    -14.715124
    5 Atom    -14.709795
    6 Atom    -14.724755
    7 Atom     -1.057287
    8 Atom    -14.714493
    9 Atom     -1.045642
   10 Atom     -1.057417
   11 Atom    -14.729849
   12 Atom    -14.704573
   13 Atom     -1.047226
   14 Atom     -1.058032
   15 Atom     -1.076772
   16 Atom    -18.380443
   17 Atom    -11.347238
   18 Atom    -18.165647
   19 Atom    -18.155774
   20 Atom    -22.334999
   21 Atom    -22.334696
   22 Atom    -22.321625
   23 Atom    -22.322408
 -----------------------------------------------------------------
 Unable to Open any file for archive entry.
 1\1\GINC-IRENE5915\SP\RwB97XD\GenECP\C9H6B1N3O4\PENASFRA\11-Apr-2024\0
 \\# wb97xd/genecp scrf=(solvent=toluene,pcm) nosymm pop=(chelpg) scfcy
 c=300\\no2_quinoline_chelpg\\0,1\C,0,-4.002519,0.027693,0.298477\C,0,-
 2.635124,0.051942,0.050905\C,0,-1.976654,1.321131,-0.072575\C,0,-2.733
 996,2.510252,0.05891\C,0,-4.124764,2.425097,0.309144\C,0,-4.748518,1.2
 09857,0.427475\H,0,-4.520661,-0.919385,0.404115\C,0,-2.05416,3.744701,
 -0.068622\H,0,-4.693979,3.343843,0.407083\H,0,-5.812385,1.154835,0.620
 482\C,0,-0.709542,3.74071,-0.310443\C,0,-0.047568,2.498122,-0.424051\H
 ,0,-2.607292,4.672962,0.027082\H,0,-0.148758,4.660722,-0.415044\H,0,1.
 021519,2.472379,-0.615484\N,0,-0.644773,1.336205,-0.312618\B,0,-1.8832
 6,-1.250437,-0.07433\N,0,-0.388159,-1.459227,-0.275832\N,0,-2.615647,-
 2.59298,0.005758\O,0,0.023966,-1.571317,-1.412134\O,0,0.277409,-1.5518
 85,0.738845\O,0,-2.849231,-3.044192,1.111831\O,0,-2.93076,-3.109659,-1
 .050459\\Version=AS64L-G16RevC.02\HF=-836.3628321\RMSD=2.844e-09\Dipol
 e=-1.6159975,3.6990668,0.2507937\Quadrupole=10.7581276,1.2281911,-11.9
 863187,-13.5344402,-2.5991916,-0.7827465\PG=C01 [X(C9H6B1N3O4)]\\@
 The archive entry for this job was punched.


 ACTORS ARE SO FORTUNATE.  THEY CAN CHOOSE WHETHER
 THEY WILL APPEAR IN A TRAGEDY OR IN COMEDY,
 WHETHER THEY WILL SUFFER OF MAKE MERRY,
 LAUGH OR SHED TEARS.  BUT IN REAL LIFE IT IS DIFFERENT.
 MOST MEN AND WOMEN ARE FORCED TO PERFORM
 PARTS FOR WHICH THEY HAVE NO QUALIFICATIONS.
 THE WORLD IS A STAGE, BUT THE PLAY IS BADLY CAST.

                                   -- OSCAR WILDE
 Job cpu time:       0 days  0 hours 50 minutes 23.4 seconds.
 Elapsed time:       0 days  0 hours  0 minutes 32.7 seconds.
 File lengths (MBytes):  RWF=    170 Int=      0 D2E=      0 Chk=     12 Scr=      1
 Normal termination of Gaussian 16 at Thu Apr 11 15:04:13 2024.
