 Entering Gaussian System, Link 0=/ccc/products/gaussian-16-C.02/system/default/g16/g16
 Input=ph_biphenylene_chelpg.gjf
 Output=ph_biphenylene_chelpg.log
 Initial command:
 /ccc/products/gaussian-16-C.02/system/default/g16/l1.exe "/ccc/scratch/cont003/gen7343/penasfra/flp/b-n_flp/ph_biphenylene/reac/Gau-138925.inp" -scrdir="/ccc/scratch/cont003/gen7343/penasfra/flp/b-n_flp/ph_biphenylene/reac/"
 Entering Link 1 = /ccc/products/gaussian-16-C.02/system/default/g16/l1.exe PID=    138974.
  
 Copyright (c) 1988-2021, Gaussian, Inc.  All Rights Reserved.
  
 This is part of the Gaussian(R) 16 program.  It is based on
 the Gaussian(R) 09 system (copyright 2009, Gaussian, Inc.),
 the Gaussian(R) 03 system (copyright 2003, Gaussian, Inc.),
 the Gaussian(R) 98 system (copyright 1998, Gaussian, Inc.),
 the Gaussian(R) 94 system (copyright 1995, Gaussian, Inc.),
 the Gaussian 92(TM) system (copyright 1992, Gaussian, Inc.),
 the Gaussian 90(TM) system (copyright 1990, Gaussian, Inc.),
 the Gaussian 88(TM) system (copyright 1988, Gaussian, Inc.),
 the Gaussian 86(TM) system (copyright 1986, Carnegie Mellon
 University), and the Gaussian 82(TM) system (copyright 1983,
 Carnegie Mellon University). Gaussian is a federally registered
 trademark of Gaussian, Inc.
  
 This software contains proprietary and confidential information,
 including trade secrets, belonging to Gaussian, Inc.
  
 This software is provided under written license and may be
 used, copied, transmitted, or stored only in accord with that
 written license.
  
 The following legend is applicable only to US Government
 contracts under FAR:
  
                    RESTRICTED RIGHTS LEGEND
  
 Use, reproduction and disclosure by the US Government is
 subject to restrictions as set forth in subparagraphs (a)
 and (c) of the Commercial Computer Software - Restricted
 Rights clause in FAR 52.227-19.
  
 Gaussian, Inc.
 340 Quinnipiac St., Bldg. 40, Wallingford CT 06492
  
  
 ---------------------------------------------------------------
 Warning -- This program may not be used in any manner that
 competes with the business of Gaussian, Inc. or will provide
 assistance to any competitor of Gaussian, Inc.  The licensee
 of this program is prohibited from giving any competitor of
 Gaussian, Inc. access to this program.  By using this program,
 the user acknowledges that Gaussian, Inc. is engaged in the
 business of creating and licensing software in the field of
 computational chemistry and represents and warrants to the
 licensee that it is not a competitor of Gaussian, Inc. and that
 it will not use this program in any manner prohibited above.
 ---------------------------------------------------------------
  

 Cite this work as:
 Gaussian 16, Revision C.02,
 M. J. Frisch, G. W. Trucks, H. B. Schlegel, G. E. Scuseria, 
 M. A. Robb, J. R. Cheeseman, G. Scalmani, V. Barone, 
 G. A. Petersson, H. Nakatsuji, X. Li, M. Caricato, A. V. Marenich, 
 J. Bloino, B. G. Janesko, R. Gomperts, B. Mennucci, H. P. Hratchian, 
 J. V. Ortiz, A. F. Izmaylov, J. L. Sonnenberg, D. Williams-Young, 
 F. Ding, F. Lipparini, F. Egidi, J. Goings, B. Peng, A. Petrone, 
 T. Henderson, D. Ranasinghe, V. G. Zakrzewski, J. Gao, N. Rega, 
 G. Zheng, W. Liang, M. Hada, M. Ehara, K. Toyota, R. Fukuda, 
 J. Hasegawa, M. Ishida, T. Nakajima, Y. Honda, O. Kitao, H. Nakai, 
 T. Vreven, K. Throssell, J. A. Montgomery, Jr., J. E. Peralta, 
 F. Ogliaro, M. J. Bearpark, J. J. Heyd, E. N. Brothers, K. N. Kudin, 
 V. N. Staroverov, T. A. Keith, R. Kobayashi, J. Normand, 
 K. Raghavachari, A. P. Rendell, J. C. Burant, S. S. Iyengar, 
 J. Tomasi, M. Cossi, J. M. Millam, M. Klene, C. Adamo, R. Cammi, 
 J. W. Ochterski, R. L. Martin, K. Morokuma, O. Farkas, 
 J. B. Foresman, and D. J. Fox, Gaussian, Inc., Wallingford CT, 2019.
 
 ******************************************
 Gaussian 16:  AS64L-G16RevC.02  7-Dec-2021
                11-Apr-2024 
 ******************************************
 %nprocshared=128
 Will use up to  128 processors via shared memory.
 %mem=30GB
 %chk=ph_biphenylene_chelpg.chk
 ----------------------------------------------------------------------
 # wb97xd/genecp scrf=(solvent=toluene,pcm) nosymm pop=(chelpg) scfcyc=
 300
 ----------------------------------------------------------------------
 1/38=1,172=1/1;
 2/12=2,15=1,17=6,18=5,40=1/2;
 3/5=7,11=2,16=1,17=8,25=1,30=1,70=2201,72=13,74=-58/1,2,3;
 4//1;
 5/5=2,7=300,38=5,53=13/2;
 6/7=2,8=2,9=2,10=2,15=8,20=3,28=1/1,2;
 99/5=1,9=1/99;
 ---------------------
 ph_biphenylene_chelpg
 ---------------------
 Symbolic Z-matrix:
 Charge =  0 Multiplicity = 1
 C                     1.94137   2.60672  -0.1351 
 C                     1.79648   2.77898  -1.53545 
 C                     0.80436   3.88621  -1.2984 
 C                     0.92663   3.70721   0.09594 
 C                     0.04196   4.86689  -1.87105 
 C                     0.26177   4.50788   1.00917 
 C                    -0.63718   5.69657  -0.95381 
 H                    -0.03947   5.01839  -2.93997 
 C                    -0.53823   5.52797   0.41567 
 H                    -1.26997   6.49401  -1.3287 
 H                    -1.10486   6.1942    1.05393 
 C                     2.51208   2.05865  -2.44457 
 H                     2.42062   2.18743  -3.51653 
 C                     3.41467   1.11477  -1.89345 
 H                     4.01581   0.50569  -2.55976 
 C                     3.55862   0.95562  -0.52995 
 C                     2.82087   1.71652   0.43136 
 H                     4.2797    0.22537  -0.1739 
 B                     3.09945   1.51629   1.9685 
 N                     0.3894    4.36058   2.38374 
 C                    -0.18728   5.35692   3.25914 
 H                    -1.2871    5.30849   3.30046 
 H                     0.19645   5.19289   4.26816 
 H                     0.11029   6.36      2.94859 
 C                     0.3638    3.01827   2.93456 
 H                     1.05052   2.93966   3.78161 
 H                    -0.64624   2.74481   3.27426 
 H                     0.65714   2.28817   2.1825 
 C                     3.91077   2.61688   2.73133 
 C                     3.79107   3.97182   2.38252 
 C                     4.81108   2.29024   3.75895 
 C                     4.49781   4.9572    3.05879 
 H                     3.12523   4.26466   1.57896 
 C                     5.54932   3.26823   4.41388 
 H                     4.95198   1.25103   4.03715 
 C                     5.38243   4.60648   4.07368 
 H                     4.37136   5.99846   2.7834 
 H                     6.25099   2.98821   5.192 
 H                     5.94807   5.37363   4.59154 
 C                     2.58805   0.2166    2.68024 
 C                     2.42781   0.15675   4.0753 
 C                     2.19591  -0.9117    1.94056 
 C                     1.92029  -0.97387   4.70158 
 H                     2.6844    1.01959   4.68011 
 C                     1.70873  -2.05461   2.56103 
 H                     2.27053  -0.89305   0.8587 
 C                     1.56971  -2.08708   3.94463 
 H                     1.7967   -0.98852   5.77886 
 H                     1.42443  -2.91557   1.96619 
 H                     1.17857  -2.9741    4.43119 
 
                          Input orientation:                          
 ---------------------------------------------------------------------
 Center     Atomic      Atomic             Coordinates (Angstroms)
 Number     Number       Type             X           Y           Z
 ---------------------------------------------------------------------
      1          6           0        1.941366    2.606722   -0.135101
      2          6           0        1.796481    2.778978   -1.535449
      3          6           0        0.804362    3.886205   -1.298404
      4          6           0        0.926629    3.707211    0.095937
      5          6           0        0.041961    4.866887   -1.871045
      6          6           0        0.261769    4.507880    1.009165
      7          6           0       -0.637180    5.696574   -0.953810
      8          1           0       -0.039473    5.018392   -2.939969
      9          6           0       -0.538232    5.527970    0.415671
     10          1           0       -1.269970    6.494007   -1.328700
     11          1           0       -1.104857    6.194197    1.053926
     12          6           0        2.512081    2.058646   -2.444566
     13          1           0        2.420621    2.187425   -3.516530
     14          6           0        3.414666    1.114767   -1.893453
     15          1           0        4.015806    0.505693   -2.559764
     16          6           0        3.558622    0.955616   -0.529952
     17          6           0        2.820871    1.716515    0.431362
     18          1           0        4.279698    0.225367   -0.173895
     19          5           0        3.099450    1.516290    1.968502
     20          7           0        0.389398    4.360582    2.383744
     21          6           0       -0.187282    5.356923    3.259139
     22          1           0       -1.287096    5.308486    3.300457
     23          1           0        0.196445    5.192891    4.268158
     24          1           0        0.110286    6.359997    2.948590
     25          6           0        0.363804    3.018267    2.934563
     26          1           0        1.050525    2.939662    3.781605
     27          1           0       -0.646236    2.744813    3.274255
     28          1           0        0.657138    2.288174    2.182499
     29          6           0        3.910769    2.616875    2.731332
     30          6           0        3.791074    3.971824    2.382516
     31          6           0        4.811083    2.290237    3.758951
     32          6           0        4.497806    4.957199    3.058793
     33          1           0        3.125231    4.264665    1.578960
     34          6           0        5.549324    3.268234    4.413883
     35          1           0        4.951981    1.251029    4.037148
     36          6           0        5.382426    4.606478    4.073678
     37          1           0        4.371365    5.998459    2.783401
     38          1           0        6.250994    2.988210    5.191998
     39          1           0        5.948071    5.373625    4.591545
     40          6           0        2.588053    0.216600    2.680240
     41          6           0        2.427814    0.156748    4.075303
     42          6           0        2.195908   -0.911704    1.940555
     43          6           0        1.920285   -0.973871    4.701579
     44          1           0        2.684402    1.019588    4.680109
     45          6           0        1.708732   -2.054605    2.561034
     46          1           0        2.270533   -0.893052    0.858703
     47          6           0        1.569705   -2.087079    3.944626
     48          1           0        1.796697   -0.988521    5.778863
     49          1           0        1.424426   -2.915568    1.966187
     50          1           0        1.178565   -2.974099    4.431193
 ---------------------------------------------------------------------
                    Distance matrix (angstroms):
                    1          2          3          4          5
     1  C    0.000000
     2  C    1.418322   0.000000
     3  C    2.069572   1.505471   0.000000
     4  C    1.514644   2.068739   1.411090   0.000000
     5  C    3.424848   2.747786   1.367812   2.448776   0.000000
     6  C    2.782947   3.437950   2.450666   1.384592   2.910809
     7  C    4.106869   3.843615   2.339706   2.739531   1.411004
     8  H    4.196089   3.218444   2.165327   3.445181   1.082674
     9  C    3.871104   4.100574   2.726904   2.358646   2.450046
    10  H    5.181539   4.821546   3.332327   3.823725   2.159357
    11  H    4.854198   5.175553   3.808596   3.351086   3.410630
    12  C    2.441256   1.362885   2.751357   3.418418   3.783733
    13  H    3.440866   2.159668   3.227728   4.194244   3.942735
    14  C    2.736484   2.348678   3.853393   4.107160   5.045200
    15  H    3.820552   3.338031   4.830348   5.181262   5.940184
    16  C    2.344691   2.727786   4.094486   3.858808   5.428027
    17  C    1.373637   2.458973   3.430154   2.768309   4.790434
    18  H    3.337687   3.813283   5.171481   4.841396   6.510180
    19  B    2.637299   3.945856   4.642909   3.609402   5.942799
    20  N    3.439362   4.454372   3.735698   2.439174   4.298870
    21  C    4.859590   5.793892   4.890559   3.737405   5.158631
    22  H    5.433742   6.268400   5.248486   4.211129   5.357783
    23  H    5.396453   6.486058   5.750096   4.488635   6.149793
    24  H    5.191250   5.981100   4.963703   3.980115   5.046080
    25  C    3.475760   4.700088   4.343434   2.974763   5.158958
    26  H    4.030513   5.371530   5.173300   3.766780   6.056719
    27  H    4.282343   5.394561   4.931148   3.674482   5.608112
    28  H    2.668705   3.919455   3.833023   2.537722   4.843493
    29  C    3.477800   4.764652   5.244019   4.127860   6.419665
    30  C    3.409299   4.555407   4.740986   3.674712   5.740189
    31  C    4.847585   6.112067   6.646636   5.523990   7.815402
    32  C    4.718166   5.757505   5.811516   4.805652   6.645752
    33  H    2.662389   3.697619   3.716031   2.709975   4.666022
    34  C    5.843647   7.051082   7.451629   6.340873   8.508058
    35  H    5.320655   6.583741   7.253621   6.145684   8.490552
    36  C    5.792559   6.903699   7.094838   6.040301   7.995506
    37  H    5.091800   5.970557   5.817754   4.933405   6.456629
    38  H    6.862682   8.071246   8.520417   7.405111   9.590000
    39  H    6.786061   7.842700   7.960004   6.942788   8.769492
    40  C    3.749271   4.996439   5.698874   4.650088   6.987270
    41  C    4.895560   6.225368   6.739523   5.540280   7.952154
    42  C    4.092977   5.085595   5.953754   5.133036   7.249820
    43  C    6.017854   7.280091   7.801629   6.641673   8.991215
    44  H    5.124192   6.520508   6.891637   5.597117   8.043744
    45  C    5.389919   6.336592   7.141874   6.315609   8.386209
    46  H    3.653001   4.409137   5.444636   4.852866   6.752404
    47  C    6.230094   7.332200   7.984688   6.985682   9.193132
    48  H    6.922548   8.227588   8.650745   7.423110   9.792139
    49  H    5.931132   6.695352   7.570083   6.899771   8.786476
    50  H    7.251101   8.311470   8.946065   7.968552  10.123790
                    6          7          8          9         10
     6  C    0.000000
     7  C    2.464624   0.000000
     8  H    3.993373   2.182203   0.000000
     9  C    1.425770   1.383364   3.430561   0.000000
    10  H    3.428781   1.084834   2.507539   2.124029   0.000000
    11  H    2.171022   2.120697   4.297529   1.082724   2.407084
    12  C    4.794884   5.037332   3.939029   5.433376   5.934770
    13  H    5.525131   5.313361   3.794583   5.947794   6.078956
    14  C    5.466184   6.188161   5.316442   6.358759   7.155486
    15  H    6.545804   7.153643   6.079005   7.403765   8.081760
    16  C    5.084948   6.345163   5.938065   6.211669   7.391013
    17  C    3.830741   5.451393   5.518137   5.080454   6.531250
    18  H    5.990267   7.397166   7.019935   7.188716   8.451523
    19  B    4.233482   6.322744   6.797841   5.633613   7.398719
    20  N    1.388328   3.738717   5.381316   2.469130   4.592085
    21  C    2.446406   4.250495   6.210104   2.870145   4.849066
    22  H    2.879231   4.321087   6.370529   2.988471   4.778582
    23  H    3.330847   5.312022   7.214097   3.936202   5.930269
    24  H    2.686011   4.028345   6.041313   2.743815   4.496474
    25  C    2.436497   4.826463   6.218783   3.668391   5.738066
    26  H    3.281443   5.733504   7.119605   4.533542   6.643289
    27  H    3.010567   5.156502   6.644840   3.991131   5.969313
    28  H    2.541677   4.809250   5.846284   3.879029   5.807865
    29  C    4.456115   6.614277   7.316786   5.799170   7.639114
    30  C    3.824845   5.806485   6.640575   5.003295   6.763778
    31  C    5.759820   7.968489   8.708975   7.090529   8.974134
    32  C    4.727248   6.558639   7.521688   5.716078   7.408044
    33  H    2.929716   4.756156   5.568139   4.046003   5.722084
    34  C    6.409919   8.542938   9.400896   7.625644   9.480804
    35  H    6.463269   8.712706   9.369514   7.845365   9.746477
    36  C    5.968424   7.918308   8.874565   7.020282   8.775125
    37  H    4.717893   6.256469   7.291981   5.470982   6.998543
    38  H    7.461656   9.620454  10.479528   8.680857  10.553436
    39  H    6.776208   8.615149   9.628114   7.715820   9.402376
    40  C    5.159377   7.323835   7.845244   6.566017   8.388193
    41  C    5.746765   8.085533   8.884657   7.144254   9.112503
    42  C    5.829260   7.750682   7.998905   7.160321   8.805958
    43  C    6.814264   9.111470   9.906620   8.166226  10.114900
    44  H    5.613658   8.040407   9.026379   6.992590   9.039475
    45  C    6.896971   8.828262   9.129323   8.194320   9.852993
    46  H    5.764359   7.427191   7.396702   7.022461   8.478711
    47  C    7.336287   9.457815  10.023713   8.653664  10.464548
    48  H    7.437503   9.795057  10.745816   8.756733  10.766156
    49  H    7.574645   9.324462   9.442515   8.806217  10.327447
    50  H    8.278333  10.367052  10.940638   9.558085  11.349745
                   11         12         13         14         15
    11  H    0.000000
    12  C    6.513407   0.000000
    13  H    7.026541   1.083539   0.000000
    14  C    7.410381   1.417495   2.184742   0.000000
    15  H    8.463984   2.164745   2.507636   1.084579   0.000000
    16  C    7.190232   2.444927   3.425208   1.380285   2.128752
    17  C    5.987367   2.912622   3.995974   2.473754   3.441046
    18  H    8.131907   3.411939   4.298726   2.120423   2.416732
    19  B    6.355742   4.484899   5.567478   3.895546   4.729293
    20  N    2.713551   5.754761   6.607701   6.162952   7.242187
    21  C    2.530995   7.120214   7.921904   7.584136   8.663718
    22  H    2.421693   7.615806   8.364180   8.165203   9.248231
    23  H    3.609333   7.761851   8.636038   8.059373   9.120190
    24  H    2.256948   7.304545   8.034039   7.866177   8.936886
    25  C    3.972442   5.871201   6.821832   6.020034   7.059588
    26  H    4.762132   6.455814   7.463632   6.412931   7.411481
    27  H    4.127765   6.568920   7.472018   6.771498   7.796414
    28  H    4.431176   4.990313   5.966486   5.059074   6.078400
    29  C    6.384938   5.390535   6.437449   4.887851   5.697703
    30  C    5.538432   5.347597   6.313554   5.156391   6.040753
    31  C    7.586594   6.619869   7.658819   5.939813   6.613866
    32  C    6.077786   6.529293   7.431098   6.360992   7.184456
    33  H    4.678931   4.629388   5.547560   4.697157   5.661451
    34  C    8.008039   7.597781   8.593508   6.998334   7.656047
    35  H    8.367784   6.972659   8.021388   6.128126   6.704565
    36  C    7.329706   7.564247   8.499139   7.188239   7.917490
    37  H    5.746164   6.805197   7.616988   6.829252   7.671135
    38  H    9.028319   8.553401   9.547328   7.858636   8.440899
    39  H    7.932962   8.503057   9.398705   8.161569   8.864064
    40  C    7.212083   5.446333   6.504778   4.733779   5.438722
    41  C    7.619664   6.792128   7.858729   6.125171   6.831368
    42  C    7.885112   5.305868   6.279719   4.504617   5.057066
    43  C    8.592907   7.785485   8.819379   7.077431   7.701131
    44  H    7.367786   7.202106   8.283617   6.614685   7.379193
    45  C    8.844795   6.528417   7.445696   5.726918   6.172543
    46  H    7.852418   4.436491   5.352993   3.593708   4.085142
    47  C    9.170003   7.674430   8.640850   6.909332   7.417073
    48  H    9.073890   8.798965   9.842776   8.118256   8.757272
    49  H    9.498279   6.736508   7.555999   5.924650   6.237348
    50  H   10.033823   8.624549   9.557737   7.856215   8.308572
                   16         17         18         19         20
    16  C    0.000000
    17  C    1.430863   0.000000
    18  H    1.086274   2.172104   0.000000
    19  B    2.601435   1.574959   2.765743   0.000000
    20  N    5.488843   4.088392   6.227034   3.950545   0.000000
    21  C    6.910898   5.504351   7.620531   5.217165   1.446227
    22  H    7.556487   6.165173   8.300507   5.949508   2.132960
    23  H    7.230532   5.804637   7.815439   5.218549   2.069054
    24  H    7.293738   5.936803   8.047832   5.775567   2.096334
    25  C    5.144342   3.741357   5.726869   3.266951   1.451160
    26  H    5.368101   3.981751   5.782814   3.084060   2.100028
    27  H    5.945927   4.600029   6.519369   4.152641   2.115717
    28  H    4.189476   2.841657   4.788602   2.570309   2.099300
    29  C    3.676923   2.699701   3.780974   1.565706   3.944792
    30  C    4.199287   3.136035   4.561790   2.584453   3.423819
    31  C    4.663106   3.919560   4.473627   2.595070   5.072359
    32  C    5.456540   4.496392   5.734813   3.870916   4.206027
    33  H    3.947802   2.811171   4.552057   2.775963   2.853359
    34  C    5.809699   5.070775   5.649663   3.879572   5.651506
    35  H    4.784049   4.214261   4.385981   2.789540   5.763699
    36  C    6.152110   5.308476   6.200969   4.380982   5.276994
    37  H    6.088442   5.125540   6.487110   4.729870   4.324168
    38  H    6.642365   6.003883   6.349182   4.742331   6.642891
    39  H    7.173423   6.360893   7.210926   5.465714   6.066258
    40  C    3.434164   2.713190   3.317804   1.567575   4.700487
    41  C    4.808876   3.983174   4.635716   2.595777   4.968776
    42  C    3.383383   3.094475   3.178995   2.590815   5.590787
    43  C    5.811711   5.126791   5.547544   3.880856   6.014346
    44  H    5.283284   4.307689   5.170794   2.787793   4.658602
    45  C    4.694435   4.471432   4.391808   3.877690   6.551847
    46  H    2.646717   2.700987   2.520687   2.779152   5.784902
    47  C    5.765035   5.326891   5.445520   4.385140   6.738086
    48  H    6.832657   6.079631   6.563090   4.742372   6.490010
    49  H    5.076570   5.075622   4.753736   4.737835   7.361250
    50  H    6.761678   6.379473   6.407842   5.469757   7.655872
                   21         22         23         24         25
    21  C    0.000000
    22  H    1.101655   0.000000
    23  H    1.091912   1.775022   0.000000
    24  H    1.091396   1.783862   1.763752   0.000000
    25  C    2.424532   2.846832   2.556457   3.351362   0.000000
    26  H    2.765554   3.362633   2.458298   3.643714   1.093272
    27  H    2.652166   2.642689   2.773272   3.707821   1.100158
    28  H    3.359973   3.761936   3.605495   4.179197   1.088430
    29  C    4.957869   5.881027   4.774295   5.338711   3.575385
    30  C    4.302823   5.330768   4.238869   4.424026   3.600029
    31  C    5.885408   6.819665   5.475361   6.270337   4.581259
    32  C    4.706375   5.800594   4.474351   4.607637   4.567807
    33  H    3.871533   4.849922   4.083035   3.918698   3.319133
    34  C    6.213268   7.220733   5.690242   6.425669   5.398193
    35  H    6.623873   7.478753   6.181162   7.122396   5.038868
    36  C    5.678758   6.750793   5.222653   5.668872   5.385774
    37  H    4.628084   5.723774   4.503710   4.279578   4.996493
    38  H    7.127282   8.110759   6.509352   7.355958   6.305230
    39  H    6.278387   7.349748   5.763545   6.144263   6.283099
    40  C    5.870309   6.428744   5.744976   6.629681   3.586266
    41  C    5.877642   6.398543   5.511709   6.717196   3.708061
    42  C    6.834760   7.257507   6.832398   7.631749   4.448520
    43  C    6.826524   7.191554   6.417821   7.754656   4.634883
    44  H    5.392421   6.005904   4.876073   6.176099   3.525170
    45  C    7.681990   7.983536   7.597860   8.573841   5.261405
    46  H    7.131980   7.554996   7.277701   7.851179   4.821123
    47  C    7.679197   7.954285   7.415422   8.629895   5.342189
    48  H    7.109841   7.436704   6.561470   8.053269   5.118357
    49  H    8.526631   8.761717   8.517870   9.419564   6.105167
    50  H    8.523214   8.715461   8.227446   9.511292   6.229943
                   26         27         28         29         30
    26  H    0.000000
    27  H    1.781676   0.000000
    28  H    1.770969   1.760464   0.000000
    29  C    3.064027   4.591016   3.315928   0.000000
    30  C    3.245523   4.689400   3.563178   1.404239   0.000000
    31  C    3.816289   5.497627   4.443024   1.404727   2.400568
    32  C    4.059145   5.603770   4.758394   2.434945   1.388447
    33  H    3.303284   4.405444   3.219046   2.158760   1.083884
    34  C    4.554880   6.321209   5.465627   2.437234   2.777217
    35  H    4.258890   5.844094   4.791771   2.157502   3.389430
    36  C    4.650693   6.360003   5.592802   2.815349   2.407325
    37  H    4.623919   6.000289   5.284201   3.413205   2.145856
    38  H    5.388547   7.163013   6.390490   3.416053   3.861592
    39  H    5.528665   7.220166   6.581602   3.900085   3.390795
    40  C    3.315428   4.147932   2.875343   2.741078   3.954441
    41  C    3.118941   4.097504   3.355738   3.171378   4.390764
    42  C    4.419772   4.819404   3.558872   4.002118   5.156426
    43  C    4.113220   4.738449   4.310712   4.553829   5.773890
    44  H    2.676480   4.005743   3.457913   2.802326   3.901199
    45  C    5.183216   5.393419   4.484291   5.167271   6.378547
    46  H    4.972069   5.251333   3.804692   4.303104   5.319875
    47  C    5.056110   5.357889   4.804239   5.392573   6.639652
    48  H    4.469500   5.116519   4.996915   5.172584   6.333856
    49  H    6.141601   6.167544   5.264452   6.113532   7.294554
    50  H    5.950708   6.113457   5.746306   6.450849   7.698580
                   31         32         33         34         35
    31  C    0.000000
    32  C    2.775077   0.000000
    33  H    3.390107   2.133886   0.000000
    34  C    1.389393   2.407190   3.860815   0.000000
    35  H    1.084988   3.859942   4.296709   2.137256   0.000000
    36  C    2.406337   1.391240   3.381624   1.390860   3.383143
    37  H    3.859528   1.084459   2.451442   3.391193   4.944400
    38  H    2.148053   3.391334   4.945076   1.084535   2.457420
    39  H    3.390168   2.150816   4.274797   2.150171   4.277306
    40  C    3.225748   5.124816   4.229445   4.592071   2.915373
    41  C    3.214316   5.325644   4.857273   4.420385   2.751422
    42  C    4.516429   6.402594   5.271545   5.902087   4.082775
    43  C    4.460904   6.672327   6.216503   5.590004   3.818747
    44  H    2.643076   4.628378   4.510208   3.651721   2.368307
    45  C    5.471493   7.562545   6.550123   6.820250   4.860534
    46  H    4.999916   6.635253   5.277435   6.380131   4.678649
    47  C    5.449945   7.679865   6.954185   6.688568   4.753032
    48  H    4.890483   7.074345   6.855666   5.836552   4.243227
    49  H    6.464043   8.521732   7.389075   7.825944   5.838926
    50  H    6.431200   8.706683   8.020252   7.620404   5.678525
                   36         37         38         39         40
    36  C    0.000000
    37  H    2.150505   0.000000
    38  H    2.150312   4.289049   0.000000
    39  H    1.084737   2.479073   2.478409   0.000000
    40  C    5.387135   6.051507   5.235254   6.444976   0.000000
    41  C    5.341332   6.290627   4.886808   6.314628   1.405510
    42  C    6.719706   7.293377   6.498072   7.785360   1.404985
    43  C    6.597043   7.635482   5.890130   7.518369   2.439046
    44  H    4.529114   5.588605   4.105859   5.442152   2.157209
    45  C    7.755910   8.484745   7.279018   8.790539   2.438399
    46  H    7.089765   7.457270   7.048809   8.168821   2.156419
    47  C    7.704362   8.635605   7.016335   8.674716   2.818269
    48  H    6.860694   8.026182   5.999963   7.688988   3.417605
    49  H    8.757195   9.424021   8.279868   9.801357   3.416779
    50  H    8.675564   9.665195   7.864953   9.615529   3.902954
                   41         42         43         44         45
    41  C    0.000000
    42  C    2.398441   0.000000
    43  C    1.388563   2.775443   0.000000
    44  H    1.084491   3.387281   2.134998   0.000000
    45  C    2.774918   1.388725   2.407213   3.859154   0.000000
    46  H    3.387231   1.084583   3.859650   4.293323   2.136061
    47  C    2.405865   2.406229   1.391085   3.381548   1.390938
    48  H    2.147572   3.859777   1.084449   2.455154   3.390973
    49  H    3.859311   2.147397   3.390934   4.943517   1.084403
    50  H    3.389614   3.389947   2.150388   4.275399   2.150358
                   46         47         48         49         50
    46  H    0.000000
    47  C    3.382275   0.000000
    48  H    4.943846   2.150065   0.000000
    49  H    2.456214   2.149819   4.288192   0.000000
    50  H    4.276194   1.084685   2.478068   2.477928   0.000000
 Symmetry turned off by external request.
 Stoichiometry    C26H22BN
 Framework group  C1[X(C26H22BN)]
 Deg. of freedom   144
 Full point group                 C1      NOp   1
 Rotational constants (GHZ):           0.2235620           0.1518626           0.1308328
 General basis read from cards:  (5D, 7F)
 ======================================================================================================
                                       Pseudopotential Parameters
 ======================================================================================================
  Center     Atomic      Valence      Angular      Power
  Number     Number     Electrons     Momentum     of R      Exponent        Coefficient   SO-Coeffient
 ======================================================================================================
    1          6
                                   No pseudopotential on this center.
    2          6
                                   No pseudopotential on this center.
    3          6
                                   No pseudopotential on this center.
    4          6
                                   No pseudopotential on this center.
    5          6
                                   No pseudopotential on this center.
    6          6
                                   No pseudopotential on this center.
    7          6
                                   No pseudopotential on this center.
    8          1
                                   No pseudopotential on this center.
    9          6
                                   No pseudopotential on this center.
   10          1
                                   No pseudopotential on this center.
   11          1
                                   No pseudopotential on this center.
   12          6
                                   No pseudopotential on this center.
   13          1
                                   No pseudopotential on this center.
   14          6
                                   No pseudopotential on this center.
   15          1
                                   No pseudopotential on this center.
   16          6
                                   No pseudopotential on this center.
   17          6
                                   No pseudopotential on this center.
   18          1
                                   No pseudopotential on this center.
   19          5
                                   No pseudopotential on this center.
   20          7
                                   No pseudopotential on this center.
   21          6
                                   No pseudopotential on this center.
   22          1
                                   No pseudopotential on this center.
   23          1
                                   No pseudopotential on this center.
   24          1
                                   No pseudopotential on this center.
   25          6
                                   No pseudopotential on this center.
   26          1
                                   No pseudopotential on this center.
   27          1
                                   No pseudopotential on this center.
   28          1
                                   No pseudopotential on this center.
   29          6
                                   No pseudopotential on this center.
   30          6
                                   No pseudopotential on this center.
   31          6
                                   No pseudopotential on this center.
   32          6
                                   No pseudopotential on this center.
   33          1
                                   No pseudopotential on this center.
   34          6
                                   No pseudopotential on this center.
   35          1
                                   No pseudopotential on this center.
   36          6
                                   No pseudopotential on this center.
   37          1
                                   No pseudopotential on this center.
   38          1
                                   No pseudopotential on this center.
   39          1
                                   No pseudopotential on this center.
   40          6
                                   No pseudopotential on this center.
   41          6
                                   No pseudopotential on this center.
   42          6
                                   No pseudopotential on this center.
   43          6
                                   No pseudopotential on this center.
   44          1
                                   No pseudopotential on this center.
   45          6
                                   No pseudopotential on this center.
   46          1
                                   No pseudopotential on this center.
   47          6
                                   No pseudopotential on this center.
   48          1
                                   No pseudopotential on this center.
   49          1
                                   No pseudopotential on this center.
   50          1
                                   No pseudopotential on this center.
 ======================================================================================================
   770 basis functions,  1206 primitive gaussians,   798 cartesian basis functions
    95 alpha electrons       95 beta electrons
       nuclear repulsion energy      2399.9212086639 Hartrees.
 NAtoms=   50 NActive=   50 NUniq=   50 SFac= 1.00D+00 NAtFMM=   60 NAOKFM=F Big=F
 Integral buffers will be    131072 words long.
 Raffenetti 2 integral format.
 Two-electron integral symmetry is turned off.
 Nuclear repulsion after empirical dispersion term =     2399.8754767516 Hartrees.
 ------------------------------------------------------------------------------
 Polarizable Continuum Model (PCM)
 =================================
 Model                : PCM.
 Atomic radii         : UFF (Universal Force Field).
 Polarization charges : Total charges.
 Charge compensation  : None.
 Solution method      : On-the-fly selection.
 Cavity type          : Scaled VdW (van der Waals Surface) (Alpha=1.100).
 Cavity algorithm     : GePol (No added spheres)
                        Default sphere list used, NSphG=   50.
                        Lebedev-Laikov grids with approx.  5.0 points / Ang**2.
                        Smoothing algorithm: York/Karplus (Gamma=1.0000).
                        Polarization charges: spherical gaussians, with
                                              point-specific exponents (IZeta= 3).
                        Self-potential: point-specific (ISelfS= 7).
                        Self-field    : sphere-specific E.n sum rule (ISelfD= 2).
 Solvent              : Toluene, Eps=   2.374100 Eps(inf)=   2.238315
 ------------------------------------------------------------------------------
 One-electron integrals computed using PRISM.
   1 Symmetry operations used in ECPInt.
 ECPInt:  NShTT=   38781 NPrTT=  134991 LenC2=   34116 LenP2D=   78652.
 LDataN:  DoStor=T MaxTD1= 4 Len=   56
 Number of processors reduced to  62 by ecpmxn.
 NBasis=   770 RedAO= T EigKep=  1.09D-06  NBF=   770
 NBsUse=   759 1.00D-06 EigRej=  7.07D-07 NBFU=   759
 ExpMin= 3.15D-02 ExpMax= 6.29D+03 ExpMxC= 9.49D+02 IAcc=3 IRadAn=         5 AccDes= 0.00D+00
 Harris functional with IExCor= 4639 and IRadAn=       5 diagonalized for initial guess.
 HarFok:  IExCor= 4639 AccDes= 0.00D+00 IRadAn=         5 IDoV= 1 UseB2=F ITyADJ=14
 ICtDFT=  3500011 ScaDFX=  1.000000  1.000000  1.000000  1.000000
 FoFCou: FMM=F IPFlag=           0 FMFlag=      100000 FMFlg1=           0
         NFxFlg=           0 DoJE=T BraDBF=F KetDBF=T FulRan=T
         wScrn=  0.000000 ICntrl=       500 IOpCl=  0 I1Cent=   200000004 NGrid=           0
         NMat0=    1 NMatS0=      1 NMatT0=    0 NMatD0=    1 NMtDS0=    0 NMtDT0=    0
 Symmetry not used in FoFCou.
 Requested convergence on RMS density matrix=1.00D-08 within 300 cycles.
 Requested convergence on MAX density matrix=1.00D-06.
 Requested convergence on             energy=1.00D-06.
 No special actions if energy rises.
 Inv3:  Mode=1 IEnd=    35480163.
 Iteration    1 A*A^-1 deviation from unit magnitude is 5.00D-15 for   3436.
 Iteration    1 A*A^-1 deviation from orthogonality  is 4.03D-15 for   3410   2493.
 Iteration    1 A^-1*A deviation from unit magnitude is 4.88D-15 for   3438.
 Iteration    1 A^-1*A deviation from orthogonality  is 1.67D-15 for   3437   3428.
 Error on total polarization charges =  0.01194
 SCF Done:  E(RwB97XD) =  -1083.46365489     A.U. after   17 cycles
            NFock= 17  Conv=0.61D-08     -V/T= 2.0044

 **********************************************************************

            Population analysis using the SCF Density.

 **********************************************************************

 Alpha  occ. eigenvalues --  -14.44882 -10.33448 -10.30942 -10.30838 -10.30202
 Alpha  occ. eigenvalues --  -10.30070 -10.29854 -10.29809 -10.29549 -10.29431
 Alpha  occ. eigenvalues --  -10.29418 -10.29285 -10.29283 -10.29260 -10.29252
 Alpha  occ. eigenvalues --  -10.29215 -10.29064 -10.29044 -10.28970 -10.28961
 Alpha  occ. eigenvalues --  -10.28862 -10.28826 -10.28743 -10.28505 -10.27930
 Alpha  occ. eigenvalues --  -10.27888 -10.27602  -6.85416  -1.05559  -1.00510
 Alpha  occ. eigenvalues --   -0.96493  -0.95967  -0.94431  -0.90041  -0.86577
 Alpha  occ. eigenvalues --   -0.85707  -0.85322  -0.84940  -0.84344  -0.84126
 Alpha  occ. eigenvalues --   -0.82283  -0.80060  -0.76466  -0.72757  -0.71515
 Alpha  occ. eigenvalues --   -0.70920  -0.70392  -0.69806  -0.69209  -0.66553
 Alpha  occ. eigenvalues --   -0.64996  -0.63314  -0.61490  -0.61055  -0.58185
 Alpha  occ. eigenvalues --   -0.57496  -0.56792  -0.56080  -0.55625  -0.54840
 Alpha  occ. eigenvalues --   -0.54302  -0.54006  -0.53818  -0.53312  -0.52944
 Alpha  occ. eigenvalues --   -0.51253  -0.51110  -0.50415  -0.49849  -0.49277
 Alpha  occ. eigenvalues --   -0.49106  -0.48403  -0.47931  -0.47814  -0.46692
 Alpha  occ. eigenvalues --   -0.46309  -0.45994  -0.45278  -0.44415  -0.43670
 Alpha  occ. eigenvalues --   -0.42901  -0.42686  -0.42307  -0.41295  -0.39911
 Alpha  occ. eigenvalues --   -0.38436  -0.37775  -0.36888  -0.34932  -0.33839
 Alpha  occ. eigenvalues --   -0.33479  -0.33014  -0.32455  -0.28565  -0.26405
 Alpha virt. eigenvalues --   -0.01141   0.01151   0.03245   0.03679   0.04323
 Alpha virt. eigenvalues --    0.04448   0.04597   0.04804   0.05162   0.05441
 Alpha virt. eigenvalues --    0.05646   0.05769   0.06009   0.06410   0.06950
 Alpha virt. eigenvalues --    0.07057   0.07169   0.07534   0.08310   0.08780
 Alpha virt. eigenvalues --    0.09021   0.09324   0.09427   0.09784   0.10049
 Alpha virt. eigenvalues --    0.10581   0.10716   0.10890   0.11335   0.11640
 Alpha virt. eigenvalues --    0.11992   0.12397   0.12718   0.13100   0.13683
 Alpha virt. eigenvalues --    0.14035   0.14367   0.14694   0.15027   0.15280
 Alpha virt. eigenvalues --    0.15635   0.15693   0.16099   0.16285   0.16407
 Alpha virt. eigenvalues --    0.16501   0.16864   0.16897   0.17094   0.17376
 Alpha virt. eigenvalues --    0.17428   0.17581   0.17760   0.17885   0.18183
 Alpha virt. eigenvalues --    0.18408   0.18670   0.19051   0.19204   0.19378
 Alpha virt. eigenvalues --    0.19590   0.19695   0.19865   0.20083   0.20140
 Alpha virt. eigenvalues --    0.20391   0.20570   0.20749   0.21188   0.21384
 Alpha virt. eigenvalues --    0.21593   0.21854   0.21927   0.22079   0.22721
 Alpha virt. eigenvalues --    0.22813   0.23061   0.23113   0.23229   0.23530
 Alpha virt. eigenvalues --    0.23613   0.23947   0.24154   0.24436   0.24646
 Alpha virt. eigenvalues --    0.24832   0.25328   0.25443   0.25519   0.25893
 Alpha virt. eigenvalues --    0.26069   0.26348   0.26598   0.26983   0.27291
 Alpha virt. eigenvalues --    0.27465   0.27840   0.27953   0.28101   0.28415
 Alpha virt. eigenvalues --    0.28687   0.29032   0.29350   0.29608   0.29814
 Alpha virt. eigenvalues --    0.30114   0.30297   0.30462   0.30683   0.30903
 Alpha virt. eigenvalues --    0.31145   0.31465   0.31596   0.31877   0.32112
 Alpha virt. eigenvalues --    0.32217   0.32340   0.32727   0.33009   0.33130
 Alpha virt. eigenvalues --    0.33335   0.33393   0.33616   0.34082   0.34137
 Alpha virt. eigenvalues --    0.34363   0.34682   0.34844   0.35034   0.35528
 Alpha virt. eigenvalues --    0.35962   0.36009   0.36457   0.36550   0.36556
 Alpha virt. eigenvalues --    0.36814   0.37252   0.37441   0.37788   0.37845
 Alpha virt. eigenvalues --    0.38101   0.38465   0.38740   0.38857   0.38991
 Alpha virt. eigenvalues --    0.39541   0.39884   0.40252   0.40261   0.40584
 Alpha virt. eigenvalues --    0.40726   0.40766   0.40907   0.41124   0.41399
 Alpha virt. eigenvalues --    0.42105   0.42382   0.42773   0.43163   0.43214
 Alpha virt. eigenvalues --    0.43385   0.43664   0.44522   0.44957   0.45199
 Alpha virt. eigenvalues --    0.45590   0.45928   0.46397   0.46654   0.46879
 Alpha virt. eigenvalues --    0.47955   0.48484   0.48696   0.48964   0.49376
 Alpha virt. eigenvalues --    0.50517   0.51061   0.52436   0.53643   0.54441
 Alpha virt. eigenvalues --    0.55028   0.56068   0.56440   0.57316   0.57872
 Alpha virt. eigenvalues --    0.58773   0.59288   0.60314   0.61298   0.62067
 Alpha virt. eigenvalues --    0.62399   0.63131   0.63313   0.63499   0.63759
 Alpha virt. eigenvalues --    0.64130   0.64775   0.65192   0.65440   0.65702
 Alpha virt. eigenvalues --    0.66016   0.66492   0.66658   0.67408   0.67957
 Alpha virt. eigenvalues --    0.68063   0.68647   0.68918   0.69189   0.69449
 Alpha virt. eigenvalues --    0.69747   0.70412   0.71361   0.71492   0.71840
 Alpha virt. eigenvalues --    0.72156   0.72712   0.72784   0.73278   0.73800
 Alpha virt. eigenvalues --    0.74140   0.74329   0.74713   0.75197   0.75744
 Alpha virt. eigenvalues --    0.76030   0.76498   0.76834   0.76928   0.77707
 Alpha virt. eigenvalues --    0.77823   0.78681   0.79210   0.79750   0.80250
 Alpha virt. eigenvalues --    0.80896   0.81072   0.81197   0.81491   0.82459
 Alpha virt. eigenvalues --    0.82476   0.82786   0.82909   0.83345   0.83580
 Alpha virt. eigenvalues --    0.83745   0.84266   0.84801   0.85047   0.85598
 Alpha virt. eigenvalues --    0.85828   0.86325   0.86468   0.87014   0.87557
 Alpha virt. eigenvalues --    0.88207   0.88591   0.88689   0.88986   0.89262
 Alpha virt. eigenvalues --    0.89561   0.90487   0.90999   0.91469   0.91586
 Alpha virt. eigenvalues --    0.92249   0.92884   0.93334   0.93937   0.94262
 Alpha virt. eigenvalues --    0.94557   0.95012   0.95620   0.95846   0.96105
 Alpha virt. eigenvalues --    0.96621   0.96721   0.97321   0.97588   0.98149
 Alpha virt. eigenvalues --    0.99151   0.99521   0.99801   1.00458   1.01012
 Alpha virt. eigenvalues --    1.01485   1.01889   1.02128   1.02973   1.03721
 Alpha virt. eigenvalues --    1.04016   1.04360   1.04737   1.05751   1.06517
 Alpha virt. eigenvalues --    1.06937   1.07281   1.07807   1.08241   1.09200
 Alpha virt. eigenvalues --    1.09874   1.10628   1.10911   1.11265   1.11983
 Alpha virt. eigenvalues --    1.12288   1.12399   1.13391   1.13766   1.14117
 Alpha virt. eigenvalues --    1.14675   1.15117   1.15670   1.15949   1.16122
 Alpha virt. eigenvalues --    1.17108   1.17845   1.18270   1.19198   1.19567
 Alpha virt. eigenvalues --    1.20403   1.20814   1.21298   1.21821   1.22188
 Alpha virt. eigenvalues --    1.22572   1.24446   1.24686   1.25627   1.26299
 Alpha virt. eigenvalues --    1.27052   1.27330   1.29050   1.29404   1.30928
 Alpha virt. eigenvalues --    1.32900   1.34338   1.34682   1.36114   1.36708
 Alpha virt. eigenvalues --    1.37712   1.40636   1.41171   1.43119   1.43885
 Alpha virt. eigenvalues --    1.45548   1.46969   1.48058   1.49887   1.51383
 Alpha virt. eigenvalues --    1.51894   1.52920   1.53637   1.54583   1.55696
 Alpha virt. eigenvalues --    1.56629   1.57354   1.57727   1.59556   1.60396
 Alpha virt. eigenvalues --    1.60520   1.60993   1.62288   1.62538   1.63198
 Alpha virt. eigenvalues --    1.63257   1.63555   1.63984   1.64242   1.65225
 Alpha virt. eigenvalues --    1.65530   1.65857   1.66242   1.66796   1.66831
 Alpha virt. eigenvalues --    1.67163   1.68122   1.68975   1.69314   1.70150
 Alpha virt. eigenvalues --    1.70818   1.71146   1.72832   1.73028   1.73174
 Alpha virt. eigenvalues --    1.73566   1.75049   1.75133   1.75477   1.75994
 Alpha virt. eigenvalues --    1.76603   1.77106   1.78017   1.78489   1.79081
 Alpha virt. eigenvalues --    1.80346   1.80961   1.81652   1.82085   1.83242
 Alpha virt. eigenvalues --    1.83468   1.84059   1.84300   1.85039   1.85354
 Alpha virt. eigenvalues --    1.86740   1.87454   1.87905   1.89541   1.89783
 Alpha virt. eigenvalues --    1.90291   1.91220   1.92136   1.92702   1.93310
 Alpha virt. eigenvalues --    1.94254   1.94743   1.95088   1.95534   1.96718
 Alpha virt. eigenvalues --    1.97406   1.98134   1.98412   1.98772   1.99363
 Alpha virt. eigenvalues --    1.99942   2.00617   2.01158   2.01548   2.02430
 Alpha virt. eigenvalues --    2.02754   2.03176   2.04000   2.04303   2.05164
 Alpha virt. eigenvalues --    2.06061   2.06330   2.06671   2.07503   2.07619
 Alpha virt. eigenvalues --    2.08540   2.09054   2.09527   2.09879   2.10613
 Alpha virt. eigenvalues --    2.10824   2.11704   2.12939   2.14411   2.15576
 Alpha virt. eigenvalues --    2.15783   2.16436   2.17003   2.17388   2.17927
 Alpha virt. eigenvalues --    2.18712   2.19173   2.21676   2.21974   2.22414
 Alpha virt. eigenvalues --    2.23724   2.24221   2.25670   2.26727   2.28551
 Alpha virt. eigenvalues --    2.28788   2.30698   2.32368   2.33773   2.34507
 Alpha virt. eigenvalues --    2.35104   2.37216   2.38657   2.39939   2.41457
 Alpha virt. eigenvalues --    2.42279   2.43948   2.44316   2.44952   2.47573
 Alpha virt. eigenvalues --    2.48727   2.50727   2.52590   2.52670   2.53525
 Alpha virt. eigenvalues --    2.54073   2.55126   2.56108   2.56944   2.57791
 Alpha virt. eigenvalues --    2.58015   2.58524   2.59040   2.59646   2.60518
 Alpha virt. eigenvalues --    2.61087   2.62283   2.64476   2.65708   2.66897
 Alpha virt. eigenvalues --    2.67974   2.69252   2.70456   2.71407   2.73179
 Alpha virt. eigenvalues --    2.73885   2.74213   2.75702   2.76229   2.77049
 Alpha virt. eigenvalues --    2.77664   2.78045   2.78273   2.78556   2.80058
 Alpha virt. eigenvalues --    2.80776   2.81176   2.81852   2.82381   2.83060
 Alpha virt. eigenvalues --    2.83534   2.83858   2.84078   2.84872   2.85498
 Alpha virt. eigenvalues --    2.85699   2.85916   2.86557   2.86901   2.87392
 Alpha virt. eigenvalues --    2.88707   2.89695   2.89871   2.90351   2.91270
 Alpha virt. eigenvalues --    2.91524   2.92729   2.93178   2.94326   2.94689
 Alpha virt. eigenvalues --    2.95068   2.95698   2.96267   2.96515   2.97175
 Alpha virt. eigenvalues --    2.97663   2.97830   2.98970   2.99247   3.00227
 Alpha virt. eigenvalues --    3.00998   3.01574   3.01956   3.02424   3.04570
 Alpha virt. eigenvalues --    3.05482   3.05696   3.06380   3.06795   3.07780
 Alpha virt. eigenvalues --    3.08494   3.08865   3.10198   3.12298   3.12902
 Alpha virt. eigenvalues --    3.13985   3.16231   3.19918   3.21417   3.21589
 Alpha virt. eigenvalues --    3.22062   3.24440   3.25204   3.27299   3.28350
 Alpha virt. eigenvalues --    3.30373   3.33017   3.34318   3.35119   3.36063
 Alpha virt. eigenvalues --    3.38069   3.46559   3.48827   3.49002   3.49639
 Alpha virt. eigenvalues --    3.51000   3.51450   3.53379   3.55228   3.57870
 Alpha virt. eigenvalues --    3.61635   3.62606   3.63749   3.63896   3.64846
 Alpha virt. eigenvalues --    3.66809   3.67622   3.68448   3.69928   3.71925
 Alpha virt. eigenvalues --    3.72527   3.73136   3.75074   3.79099   3.82475
 Alpha virt. eigenvalues --    3.86336   3.88353   3.91019   3.92754   3.96182
 Alpha virt. eigenvalues --    3.98233   4.04414   4.09794   4.11280   4.11987
 Alpha virt. eigenvalues --    4.12451   4.13152   4.14684   4.16600   4.17841
 Alpha virt. eigenvalues --    4.22327   4.25424   4.26494   4.29006   4.29612
 Alpha virt. eigenvalues --    4.32569   4.33795   4.42149   4.47025   4.54431
 Alpha virt. eigenvalues --    4.89763   4.94320   4.95759   4.98881   5.01922
 Alpha virt. eigenvalues --    5.19389  14.90851  23.69592  23.77763  23.80503
 Alpha virt. eigenvalues --   23.84154  24.06019  24.06753  24.07161  24.09637
 Alpha virt. eigenvalues --   24.10578  24.11166  24.12256  24.12954  24.13582
 Alpha virt. eigenvalues --   24.14853  24.20356  24.21171  24.22245  24.24111
 Alpha virt. eigenvalues --   24.24288  24.24725  24.28460  24.30849  24.32969
 Alpha virt. eigenvalues --   24.33308  24.33702  24.49277  35.77344
          Condensed to atoms (all electrons):
               1          2          3          4          5          6
     1  C   10.471596   0.742572  -2.179714   1.402407   0.261904   0.218867
     2  C    0.742572  13.827013  -0.045790  -2.023962  -0.467883  -0.674476
     3  C   -2.179714  -0.045790  10.238752  -0.678628  -2.782806  -1.507562
     4  C    1.402407  -2.023962  -0.678628   8.010333  -0.284255   1.111515
     5  C    0.261904  -0.467883  -2.782806  -0.284255   8.636361   1.011317
     6  C    0.218867  -0.674476  -1.507562   1.111515   1.011317   8.469539
     7  C   -0.161014   0.059468  -0.500159  -0.067394   1.000684  -0.942239
     8  H    0.002766   0.023142  -0.069930   0.020592   0.414015  -0.001315
     9  C   -1.421304  -0.040205   2.424857  -0.293613  -2.287465  -1.435426
    10  H    0.005194  -0.001417   0.013344   0.005278  -0.060976   0.016795
    11  H   -0.023574  -0.004251   0.027321   0.032125  -0.033224  -0.064274
    12  C   -2.942220  -5.703490   1.209385   0.735021   0.365485   0.530875
    13  H    0.005146  -0.119404   0.015076   0.006111   0.000809   0.006690
    14  C   -0.398924   0.263233   0.254384  -0.499463  -0.145203   0.020208
    15  H   -0.004088  -0.023153   0.004171   0.006849  -0.001268   0.003397
    16  C   -1.244674   2.948232   0.357308  -2.074642   0.134521  -0.576357
    17  C    1.246833  -2.544798  -0.481672   1.121715   0.319456   0.027013
    18  H   -0.066939   0.128314   0.010377  -0.066978   0.004346  -0.019075
    19  B   -0.058169  -0.060755  -0.183235   0.016773   0.042284   0.048788
    20  N    0.117189  -0.151529  -0.284090  -0.159125   0.180877   0.091135
    21  C    0.003071   0.020159  -0.063893   0.005955  -0.000097  -0.058806
    22  H    0.000815   0.000172   0.012235   0.008405  -0.003165  -0.049138
    23  H   -0.002972   0.002750   0.000897  -0.013511  -0.004253   0.026333
    24  H    0.001430   0.002129  -0.020772  -0.000546   0.011671  -0.005175
    25  C    0.092793  -0.026129  -0.140091  -0.107549   0.057229  -0.282040
    26  H    0.002593  -0.041770  -0.016286   0.096223  -0.002901   0.026890
    27  H    0.012758   0.026447   0.019174  -0.016094  -0.005583  -0.041312
    28  H    0.074234  -0.096017  -0.005358   0.122090  -0.015868   0.085129
    29  C   -0.084603  -0.551408  -0.022495   0.024475   0.081269   0.007300
    30  C    0.315008   0.124599  -0.037142   0.245228  -0.070746  -0.030045
    31  C   -0.193016   0.169071   0.046564  -0.176155   0.007192   0.050139
    32  C   -0.208761   0.208339   0.055585  -0.119938  -0.030021  -0.078065
    33  H   -0.060532   0.088508   0.064991  -0.036844   0.007020  -0.017307
    34  C    0.026132   0.001648  -0.001658  -0.034906   0.000927   0.024379
    35  H   -0.006934   0.006129   0.001312  -0.006806  -0.000559   0.000302
    36  C   -0.020323   0.016741   0.000292   0.057420  -0.006223  -0.048539
    37  H    0.000941  -0.004294  -0.002412   0.000227   0.001148   0.002690
    38  H    0.000829  -0.000826   0.000011  -0.000964   0.000063   0.000277
    39  H   -0.001271   0.000701   0.000331   0.000601  -0.000096  -0.001089
    40  C    0.073326   0.234306   0.035462  -0.183533  -0.008725  -0.062021
    41  C    0.298185  -0.070669  -0.059769   0.255304  -0.025393   0.002780
    42  C   -0.288087  -0.215499   0.063472  -0.168407   0.041197   0.000663
    43  C   -0.008961  -0.038234  -0.002283  -0.013442   0.003299  -0.002641
    44  H    0.009458  -0.000358  -0.003874   0.021913  -0.001644  -0.002097
    45  C   -0.006394   0.063434   0.000837  -0.005953  -0.000438  -0.004047
    46  H   -0.057772  -0.025833   0.014565  -0.025320   0.004040  -0.000073
    47  C   -0.005455  -0.001889  -0.003743   0.014875  -0.001010   0.008519
    48  H   -0.000291   0.000064   0.000288  -0.001766   0.000102  -0.001210
    49  H    0.002920   0.000385  -0.000107   0.000043  -0.000003   0.000124
    50  H   -0.000041  -0.000227  -0.000012   0.000104   0.000005  -0.000017
               7          8          9         10         11         12
     1  C   -0.161014   0.002766  -1.421304   0.005194  -0.023574  -2.942220
     2  C    0.059468   0.023142  -0.040205  -0.001417  -0.004251  -5.703490
     3  C   -0.500159  -0.069930   2.424857   0.013344   0.027321   1.209385
     4  C   -0.067394   0.020592  -0.293613   0.005278   0.032125   0.735021
     5  C    1.000684   0.414015  -2.287465  -0.060976  -0.033224   0.365485
     6  C   -0.942239  -0.001315  -1.435426   0.016795  -0.064274   0.530875
     7  C    7.369627   0.014040  -0.378936   0.379696  -0.075564  -0.148681
     8  H    0.014040   0.448385  -0.044234  -0.004912   0.000679  -0.013806
     9  C   -0.378936  -0.044234  10.563090  -0.032434   0.516645   0.356800
    10  H    0.379696  -0.004912  -0.032434   0.454536  -0.005404   0.000397
    11  H   -0.075564   0.000679   0.516645  -0.005404   0.480838   0.010347
    12  C   -0.148681  -0.013806   0.356800   0.000397   0.010347  11.762200
    13  H   -0.001407   0.000448  -0.002531   0.000119   0.000010   0.441127
    14  C    0.021832   0.002093   0.021440   0.000138   0.000164   0.258142
    15  H   -0.000100   0.000245   0.000299  -0.000012   0.000013  -0.027337
    16  C    0.006724  -0.002404  -0.168552  -0.000159  -0.002269  -2.350691
    17  C    0.038427   0.000952  -0.349758  -0.000173  -0.004367   1.669951
    18  H    0.000818  -0.000032  -0.004583   0.000004  -0.000044  -0.073109
    19  B    0.007482   0.002825  -0.052749   0.001250   0.002839   0.024235
    20  N    0.052100   0.000929  -0.656583  -0.004513  -0.039052   0.019864
    21  C   -0.253434  -0.001082  -0.090720   0.000113   0.008047   0.018643
    22  H    0.024983  -0.000014   0.031922   0.000408  -0.005577  -0.001800
    23  H   -0.018243  -0.000089   0.024048   0.000014   0.005752   0.002160
    24  H   -0.005374   0.000022  -0.024362  -0.000210  -0.008163  -0.000066
    25  C   -0.010711  -0.000605  -0.284443   0.000535  -0.006722   0.003355
    26  H    0.017417   0.000038   0.022758  -0.000086  -0.001440  -0.011704
    27  H   -0.015702  -0.000063  -0.018010   0.000045   0.001752  -0.000597
    28  H    0.019686  -0.000003   0.030655  -0.000891  -0.001731   0.011440
    29  C   -0.047561  -0.000074  -0.006058   0.000098   0.002516   0.410279
    30  C    0.002927  -0.000370  -0.008630  -0.000452  -0.000939  -0.321521
    31  C    0.001885   0.000055   0.009594   0.000084   0.000628   0.026720
    32  C    0.067918   0.000121   0.021867   0.000391  -0.003129  -0.126225
    33  H   -0.012947  -0.000166   0.045425  -0.001075   0.000569  -0.000355
    34  C   -0.001919  -0.000031  -0.013746   0.000005   0.000224  -0.000105
    35  H    0.000153  -0.000003   0.000507  -0.000002   0.000015  -0.003223
    36  C    0.003646   0.000009   0.011921   0.000004  -0.000694  -0.018835
    37  H    0.001763   0.000026  -0.005749   0.000002  -0.000032  -0.000238
    38  H   -0.000027  -0.000001  -0.000362   0.000001   0.000003   0.000428
    39  H    0.000089  -0.000000   0.000666  -0.000001  -0.000013  -0.000294
    40  C   -0.010907  -0.000579  -0.007718  -0.000163   0.000986  -0.099439
    41  C    0.005436  -0.000182   0.025359  -0.000049  -0.001223  -0.157976
    42  C   -0.002461   0.000356  -0.020612   0.000079   0.000367   0.353015
    43  C    0.000116  -0.000046  -0.000731   0.000020  -0.000213   0.022614
    44  H   -0.000025   0.000011   0.001958  -0.000014  -0.000086  -0.007238
    45  C    0.001131   0.000135  -0.001774  -0.000001  -0.000109  -0.072866
    46  H    0.000109  -0.000095  -0.000548   0.000007   0.000037   0.064487
    47  C   -0.000048   0.000007   0.000735   0.000001   0.000053  -0.004856
    48  H   -0.000023  -0.000001  -0.000202   0.000000  -0.000006   0.000398
    49  H    0.000016   0.000001   0.000037  -0.000000  -0.000004  -0.001294
    50  H   -0.000007  -0.000000  -0.000031   0.000000   0.000000   0.000210
              13         14         15         16         17         18
     1  C    0.005146  -0.398924  -0.004088  -1.244674   1.246833  -0.066939
     2  C   -0.119404   0.263233  -0.023153   2.948232  -2.544798   0.128314
     3  C    0.015076   0.254384   0.004171   0.357308  -0.481672   0.010377
     4  C    0.006111  -0.499463   0.006849  -2.074642   1.121715  -0.066978
     5  C    0.000809  -0.145203  -0.001268   0.134521   0.319456   0.004346
     6  C    0.006690   0.020208   0.003397  -0.576357   0.027013  -0.019075
     7  C   -0.001407   0.021832  -0.000100   0.006724   0.038427   0.000818
     8  H    0.000448   0.002093   0.000245  -0.002404   0.000952  -0.000032
     9  C   -0.002531   0.021440   0.000299  -0.168552  -0.349758  -0.004583
    10  H    0.000119   0.000138  -0.000012  -0.000159  -0.000173   0.000004
    11  H    0.000010   0.000164   0.000013  -0.002269  -0.004367  -0.000044
    12  C    0.441127   0.258142  -0.027337  -2.350691   1.669951  -0.073109
    13  H    0.442692   0.003779  -0.003966  -0.031901   0.011377   0.001588
    14  C    0.003779   7.402287   0.392828   0.948618  -2.100869   0.074160
    15  H   -0.003966   0.392828   0.454036  -0.038309   0.025937  -0.009328
    16  C   -0.031901   0.948618  -0.038309  11.564688  -3.892576   0.629192
    17  C    0.011377  -2.100869   0.025937  -3.892576  11.165623  -0.332766
    18  H    0.001588   0.074160  -0.009328   0.629192  -0.332766   0.503311
    19  B   -0.006273  -0.404947  -0.006850  -1.039820   0.560003  -0.070932
    20  N    0.000928  -0.015453  -0.000097  -0.000010   0.095097   0.000230
    21  C    0.000057  -0.000556   0.000063  -0.003890   0.025468  -0.000450
    22  H   -0.000003   0.000102   0.000001   0.000665   0.002242   0.000016
    23  H   -0.000007  -0.000269  -0.000000  -0.000006  -0.004580  -0.000091
    24  H   -0.000002   0.000034  -0.000003   0.000425   0.002879   0.000023
    25  C   -0.000249  -0.010287  -0.000190   0.002941   0.014327  -0.001670
    26  H    0.000037  -0.002730   0.000119  -0.060724   0.041367  -0.002820
    27  H   -0.000094   0.002016  -0.000041   0.023928   0.009035   0.000867
    28  H    0.000943   0.014918   0.000298  -0.023792   0.022192  -0.001956
    29  C    0.004818   0.022618  -0.001136   0.053401  -0.080678   0.001491
    30  C   -0.002070   0.063024  -0.003049   0.054757  -0.175989   0.011320
    31  C   -0.000630   0.014611   0.000282   0.134086  -0.084590   0.005339
    32  C   -0.001376   0.035850  -0.001204   0.179512  -0.361075   0.021330
    33  H   -0.000506  -0.003133  -0.000265   0.087321  -0.045604   0.002172
    34  C   -0.000119   0.007995  -0.000052   0.008301  -0.060867   0.002138
    35  H   -0.000055   0.004328  -0.000310   0.024431  -0.027994   0.000765
    36  C   -0.000160  -0.000551   0.000189   0.013166   0.062025  -0.001000
    37  H    0.000042   0.000661   0.000014  -0.001259   0.001547   0.000049
    38  H    0.000005   0.000028  -0.000012  -0.000848  -0.003221  -0.000086
    39  H   -0.000005   0.000068  -0.000001   0.001269   0.001603   0.000023
    40  C   -0.001590   0.068865  -0.008122   0.851174  -0.893199   0.027702
    41  C   -0.000441  -0.003132  -0.000139  -0.236096   0.330196  -0.003351
    42  C    0.003440   0.021606   0.004910   0.034283   0.071534  -0.023644
    43  C    0.000132  -0.019818  -0.000682  -0.041410  -0.000895  -0.008436
    44  H   -0.000062  -0.001317   0.000112  -0.027435   0.069370  -0.002100
    45  C   -0.000509   0.014543   0.006013  -0.032483  -0.004911   0.020848
    46  H    0.000890   0.038941  -0.003163   0.116234  -0.107001   0.012454
    47  C   -0.000042   0.002910  -0.000119  -0.038110   0.027327   0.003136
    48  H    0.000001  -0.000235  -0.000005   0.002982  -0.005923   0.000004
    49  H   -0.000005   0.000495   0.000252  -0.002296   0.001563  -0.000692
    50  H    0.000002   0.000112  -0.000022  -0.000279   0.000850  -0.000119
              19         20         21         22         23         24
     1  C   -0.058169   0.117189   0.003071   0.000815  -0.002972   0.001430
     2  C   -0.060755  -0.151529   0.020159   0.000172   0.002750   0.002129
     3  C   -0.183235  -0.284090  -0.063893   0.012235   0.000897  -0.020772
     4  C    0.016773  -0.159125   0.005955   0.008405  -0.013511  -0.000546
     5  C    0.042284   0.180877  -0.000097  -0.003165  -0.004253   0.011671
     6  C    0.048788   0.091135  -0.058806  -0.049138   0.026333  -0.005175
     7  C    0.007482   0.052100  -0.253434   0.024983  -0.018243  -0.005374
     8  H    0.002825   0.000929  -0.001082  -0.000014  -0.000089   0.000022
     9  C   -0.052749  -0.656583  -0.090720   0.031922   0.024048  -0.024362
    10  H    0.001250  -0.004513   0.000113   0.000408   0.000014  -0.000210
    11  H    0.002839  -0.039052   0.008047  -0.005577   0.005752  -0.008163
    12  C    0.024235   0.019864   0.018643  -0.001800   0.002160  -0.000066
    13  H   -0.006273   0.000928   0.000057  -0.000003  -0.000007  -0.000002
    14  C   -0.404947  -0.015453  -0.000556   0.000102  -0.000269   0.000034
    15  H   -0.006850  -0.000097   0.000063   0.000001  -0.000000  -0.000003
    16  C   -1.039820  -0.000010  -0.003890   0.000665  -0.000006   0.000425
    17  C    0.560003   0.095097   0.025468   0.002242  -0.004580   0.002879
    18  H   -0.070932   0.000230  -0.000450   0.000016  -0.000091   0.000023
    19  B   11.058134  -0.051574  -0.109699  -0.003721  -0.007103   0.010510
    20  N   -0.051574   7.251897   0.272535  -0.071980  -0.071300  -0.028167
    21  C   -0.109699   0.272535   5.569276   0.412355   0.408259   0.418905
    22  H   -0.003721  -0.071980   0.412355   0.547855  -0.042736  -0.048865
    23  H   -0.007103  -0.071300   0.408259  -0.042736   0.513625  -0.010845
    24  H    0.010510  -0.028167   0.418905  -0.048865  -0.010845   0.542689
    25  C   -0.145625   0.150536  -0.213659  -0.017760   0.031090   0.012642
    26  H   -0.250866   0.019730  -0.002647   0.004337  -0.009158  -0.005587
    27  H    0.058927  -0.169906  -0.007134   0.014126  -0.003400  -0.001661
    28  H   -0.692604   0.039534   0.023766  -0.004683   0.007455  -0.004663
    29  C   -1.667451   0.129281   0.129501  -0.003581   0.003603   0.009123
    30  C   -0.275512  -0.101290   0.033744  -0.004761   0.012297   0.011450
    31  C    0.446861  -0.041172  -0.019973   0.000169  -0.003120  -0.001254
    32  C    1.033203   0.005754  -0.133342   0.010073  -0.020975  -0.018378
    33  H   -0.367385  -0.019116   0.003641  -0.000562   0.002935   0.000106
    34  C    0.112875  -0.023541  -0.005507  -0.001167   0.005353  -0.000327
    35  H   -0.101504  -0.002057  -0.001733   0.000091  -0.000237  -0.000184
    36  C   -0.129074   0.024838   0.003169   0.002554  -0.001922  -0.004039
    37  H    0.011391   0.003119  -0.003171   0.000230  -0.001388  -0.001294
    38  H    0.008336  -0.000136   0.000056  -0.000036   0.000151  -0.000009
    39  H   -0.023545   0.000415  -0.000049   0.000075  -0.000269   0.000054
    40  C   -0.756449  -0.005371   0.011007  -0.001513   0.007340  -0.000224
    41  C   -0.630994  -0.010782  -0.004973   0.002257  -0.005215   0.000080
    42  C   -0.463680   0.045898   0.016390  -0.001065   0.001281   0.000804
    43  C   -0.074321   0.031474   0.001528   0.000182   0.001709   0.000297
    44  H   -0.243604  -0.010390   0.002297  -0.000287   0.000408   0.000117
    45  C    0.514242  -0.009897   0.000326  -0.000003  -0.001133   0.000236
    46  H   -0.256070   0.002034   0.000429  -0.000056   0.000034   0.000038
    47  C    0.113185   0.004875  -0.000538   0.000063  -0.000223  -0.000112
    48  H    0.007828   0.000298  -0.000020   0.000002   0.000122   0.000014
    49  H    0.006239  -0.000088   0.000046  -0.000002   0.000001   0.000005
    50  H   -0.012655   0.000054   0.000016   0.000002   0.000003  -0.000002
              25         26         27         28         29         30
     1  C    0.092793   0.002593   0.012758   0.074234  -0.084603   0.315008
     2  C   -0.026129  -0.041770   0.026447  -0.096017  -0.551408   0.124599
     3  C   -0.140091  -0.016286   0.019174  -0.005358  -0.022495  -0.037142
     4  C   -0.107549   0.096223  -0.016094   0.122090   0.024475   0.245228
     5  C    0.057229  -0.002901  -0.005583  -0.015868   0.081269  -0.070746
     6  C   -0.282040   0.026890  -0.041312   0.085129   0.007300  -0.030045
     7  C   -0.010711   0.017417  -0.015702   0.019686  -0.047561   0.002927
     8  H   -0.000605   0.000038  -0.000063  -0.000003  -0.000074  -0.000370
     9  C   -0.284443   0.022758  -0.018010   0.030655  -0.006058  -0.008630
    10  H    0.000535  -0.000086   0.000045  -0.000891   0.000098  -0.000452
    11  H   -0.006722  -0.001440   0.001752  -0.001731   0.002516  -0.000939
    12  C    0.003355  -0.011704  -0.000597   0.011440   0.410279  -0.321521
    13  H   -0.000249   0.000037  -0.000094   0.000943   0.004818  -0.002070
    14  C   -0.010287  -0.002730   0.002016   0.014918   0.022618   0.063024
    15  H   -0.000190   0.000119  -0.000041   0.000298  -0.001136  -0.003049
    16  C    0.002941  -0.060724   0.023928  -0.023792   0.053401   0.054757
    17  C    0.014327   0.041367   0.009035   0.022192  -0.080678  -0.175989
    18  H   -0.001670  -0.002820   0.000867  -0.001956   0.001491   0.011320
    19  B   -0.145625  -0.250866   0.058927  -0.692604  -1.667451  -0.275512
    20  N    0.150536   0.019730  -0.169906   0.039534   0.129281  -0.101290
    21  C   -0.213659  -0.002647  -0.007134   0.023766   0.129501   0.033744
    22  H   -0.017760   0.004337   0.014126  -0.004683  -0.003581  -0.004761
    23  H    0.031090  -0.009158  -0.003400   0.007455   0.003603   0.012297
    24  H    0.012642  -0.005587  -0.001661  -0.004663   0.009123   0.011450
    25  C    6.633883   0.171161   0.584848   0.009947  -0.262443   0.066081
    26  H    0.171161   0.693982  -0.100724   0.046008   0.185432   0.061922
    27  H    0.584848  -0.100724   0.581333  -0.135755  -0.054009   0.013636
    28  H    0.009947   0.046008  -0.135755   0.994285   0.251852  -0.017910
    29  C   -0.262443   0.185432  -0.054009   0.251852  13.452156   0.978478
    30  C    0.066081   0.061922   0.013636  -0.017910   0.978478   9.612809
    31  C    0.090341  -0.073994   0.021463  -0.057609  -2.367705  -1.173996
    32  C   -0.041693  -0.044928   0.016420  -0.059973  -4.968438  -3.148861
    33  H    0.020018  -0.007492   0.005678   0.005237   0.051378   0.415892
    34  C    0.116901  -0.030071   0.009852  -0.042791  -1.128772   0.761013
    35  H    0.005837   0.001556   0.001378  -0.004135  -0.178868   0.019582
    36  C   -0.059795   0.019101  -0.005518   0.012757   0.255829  -1.164992
    37  H   -0.001644   0.001093  -0.000221   0.000737  -0.001368  -0.039894
    38  H    0.001632  -0.000598   0.000157  -0.000682   0.054244   0.034796
    39  H   -0.001376   0.000628  -0.000098   0.000376   0.004441  -0.043688
    40  C    0.079639  -0.143343   0.031365   0.121940  -0.442254  -0.042598
    41  C   -0.055786   0.168167  -0.016509   0.061421   0.222570   0.518657
    42  C    0.046930  -0.031561  -0.010869   0.051519   0.761376  -0.650846
    43  C    0.027871   0.030949  -0.035808  -0.023317  -0.135617  -0.033856
    44  H    0.039230   0.009166   0.002341   0.002922   0.025894   0.045551
    45  C   -0.001526  -0.003928   0.006526  -0.043441  -0.067997  -0.048526
    46  H    0.004898  -0.002432   0.000753   0.015855   0.104025  -0.033535
    47  C   -0.030845   0.019512  -0.006968   0.009528   0.186966   0.002337
    48  H    0.001954  -0.003058  -0.000186   0.000212  -0.006159  -0.003105
    49  H    0.000655   0.000051  -0.000055  -0.001613  -0.010907   0.000508
    50  H    0.000654   0.000405  -0.000005  -0.000013   0.004247  -0.000606
              31         32         33         34         35         36
     1  C   -0.193016  -0.208761  -0.060532   0.026132  -0.006934  -0.020323
     2  C    0.169071   0.208339   0.088508   0.001648   0.006129   0.016741
     3  C    0.046564   0.055585   0.064991  -0.001658   0.001312   0.000292
     4  C   -0.176155  -0.119938  -0.036844  -0.034906  -0.006806   0.057420
     5  C    0.007192  -0.030021   0.007020   0.000927  -0.000559  -0.006223
     6  C    0.050139  -0.078065  -0.017307   0.024379   0.000302  -0.048539
     7  C    0.001885   0.067918  -0.012947  -0.001919   0.000153   0.003646
     8  H    0.000055   0.000121  -0.000166  -0.000031  -0.000003   0.000009
     9  C    0.009594   0.021867   0.045425  -0.013746   0.000507   0.011921
    10  H    0.000084   0.000391  -0.001075   0.000005  -0.000002   0.000004
    11  H    0.000628  -0.003129   0.000569   0.000224   0.000015  -0.000694
    12  C    0.026720  -0.126225  -0.000355  -0.000105  -0.003223  -0.018835
    13  H   -0.000630  -0.001376  -0.000506  -0.000119  -0.000055  -0.000160
    14  C    0.014611   0.035850  -0.003133   0.007995   0.004328  -0.000551
    15  H    0.000282  -0.001204  -0.000265  -0.000052  -0.000310   0.000189
    16  C    0.134086   0.179512   0.087321   0.008301   0.024431   0.013166
    17  C   -0.084590  -0.361075  -0.045604  -0.060867  -0.027994   0.062025
    18  H    0.005339   0.021330   0.002172   0.002138   0.000765  -0.001000
    19  B    0.446861   1.033203  -0.367385   0.112875  -0.101504  -0.129074
    20  N   -0.041172   0.005754  -0.019116  -0.023541  -0.002057   0.024838
    21  C   -0.019973  -0.133342   0.003641  -0.005507  -0.001733   0.003169
    22  H    0.000169   0.010073  -0.000562  -0.001167   0.000091   0.002554
    23  H   -0.003120  -0.020975   0.002935   0.005353  -0.000237  -0.001922
    24  H   -0.001254  -0.018378   0.000106  -0.000327  -0.000184  -0.004039
    25  C    0.090341  -0.041693   0.020018   0.116901   0.005837  -0.059795
    26  H   -0.073994  -0.044928  -0.007492  -0.030071   0.001556   0.019101
    27  H    0.021463   0.016420   0.005678   0.009852   0.001378  -0.005518
    28  H   -0.057609  -0.059973   0.005237  -0.042791  -0.004135   0.012757
    29  C   -2.367705  -4.968438   0.051378  -1.128772  -0.178868   0.255829
    30  C   -1.173996  -3.148861   0.415892   0.761013   0.019582  -1.164992
    31  C    7.881478   2.085134   0.020399  -0.484781   0.475520  -0.456894
    32  C    2.085134  12.331038  -0.128477  -0.851007   0.100631   0.782105
    33  H    0.020399  -0.128477   0.696397  -0.011840  -0.005133  -0.066641
    34  C   -0.484781  -0.851007  -0.011840   7.833710  -0.060715  -0.093571
    35  H    0.475520   0.100631  -0.005133  -0.060715   0.504790   0.010965
    36  C   -0.456894   0.782105  -0.066641  -0.093571   0.010965   6.758595
    37  H    0.021365   0.409637  -0.024060   0.000426   0.000394  -0.051928
    38  H   -0.066295  -0.053123  -0.002139   0.428798  -0.010875  -0.065745
    39  H   -0.019591  -0.009277   0.005700  -0.068185   0.003626   0.467831
    40  C    0.374306  -0.126725   0.067691  -0.245976   0.080737   0.118922
    41  C   -0.366142  -0.009812   0.009435   0.028044   0.027882   0.035713
    42  C   -0.044583  -0.226251   0.007299   0.068777  -0.057538  -0.039153
    43  C    0.038116  -0.028161   0.010537   0.071679  -0.026499  -0.021258
    44  H   -0.011015  -0.005014   0.005291  -0.011702   0.006729   0.021719
    45  C   -0.007141   0.016348  -0.002865  -0.013517  -0.019917   0.000890
    46  H   -0.006344  -0.012586   0.005777   0.003608  -0.004145  -0.004508
    47  C   -0.047767  -0.006456  -0.004613   0.005154   0.003063  -0.008110
    48  H    0.000614  -0.001229   0.000217  -0.000255  -0.002284   0.000826
    49  H    0.000710   0.000139   0.000128  -0.000015  -0.000035   0.000298
    50  H    0.000170  -0.000378  -0.000013   0.000652   0.000145  -0.000084
              37         38         39         40         41         42
     1  C    0.000941   0.000829  -0.001271   0.073326   0.298185  -0.288087
     2  C   -0.004294  -0.000826   0.000701   0.234306  -0.070669  -0.215499
     3  C   -0.002412   0.000011   0.000331   0.035462  -0.059769   0.063472
     4  C    0.000227  -0.000964   0.000601  -0.183533   0.255304  -0.168407
     5  C    0.001148   0.000063  -0.000096  -0.008725  -0.025393   0.041197
     6  C    0.002690   0.000277  -0.001089  -0.062021   0.002780   0.000663
     7  C    0.001763  -0.000027   0.000089  -0.010907   0.005436  -0.002461
     8  H    0.000026  -0.000001  -0.000000  -0.000579  -0.000182   0.000356
     9  C   -0.005749  -0.000362   0.000666  -0.007718   0.025359  -0.020612
    10  H    0.000002   0.000001  -0.000001  -0.000163  -0.000049   0.000079
    11  H   -0.000032   0.000003  -0.000013   0.000986  -0.001223   0.000367
    12  C   -0.000238   0.000428  -0.000294  -0.099439  -0.157976   0.353015
    13  H    0.000042   0.000005  -0.000005  -0.001590  -0.000441   0.003440
    14  C    0.000661   0.000028   0.000068   0.068865  -0.003132   0.021606
    15  H    0.000014  -0.000012  -0.000001  -0.008122  -0.000139   0.004910
    16  C   -0.001259  -0.000848   0.001269   0.851174  -0.236096   0.034283
    17  C    0.001547  -0.003221   0.001603  -0.893199   0.330196   0.071534
    18  H    0.000049  -0.000086   0.000023   0.027702  -0.003351  -0.023644
    19  B    0.011391   0.008336  -0.023545  -0.756449  -0.630994  -0.463680
    20  N    0.003119  -0.000136   0.000415  -0.005371  -0.010782   0.045898
    21  C   -0.003171   0.000056  -0.000049   0.011007  -0.004973   0.016390
    22  H    0.000230  -0.000036   0.000075  -0.001513   0.002257  -0.001065
    23  H   -0.001388   0.000151  -0.000269   0.007340  -0.005215   0.001281
    24  H   -0.001294  -0.000009   0.000054  -0.000224   0.000080   0.000804
    25  C   -0.001644   0.001632  -0.001376   0.079639  -0.055786   0.046930
    26  H    0.001093  -0.000598   0.000628  -0.143343   0.168167  -0.031561
    27  H   -0.000221   0.000157  -0.000098   0.031365  -0.016509  -0.010869
    28  H    0.000737  -0.000682   0.000376   0.121940   0.061421   0.051519
    29  C   -0.001368   0.054244   0.004441  -0.442254   0.222570   0.761376
    30  C   -0.039894   0.034796  -0.043688  -0.042598   0.518657  -0.650846
    31  C    0.021365  -0.066295  -0.019591   0.374306  -0.366142  -0.044583
    32  C    0.409637  -0.053123  -0.009277  -0.126725  -0.009812  -0.226251
    33  H   -0.024060  -0.002139   0.005700   0.067691   0.009435   0.007299
    34  C    0.000426   0.428798  -0.068185  -0.245976   0.028044   0.068777
    35  H    0.000394  -0.010875   0.003626   0.080737   0.027882  -0.057538
    36  C   -0.051928  -0.065745   0.467831   0.118922   0.035713  -0.039153
    37  H    0.461097   0.001333  -0.010297  -0.011404   0.000087   0.001408
    38  H    0.001333   0.458779  -0.011713  -0.001844  -0.007554   0.004296
    39  H   -0.010297  -0.011713   0.471624   0.001244   0.002804  -0.000790
    40  C   -0.011404  -0.001844   0.001244  10.296838  -0.283447  -0.488833
    41  C    0.000087  -0.007554   0.002804  -0.283447   9.929043  -2.812188
    42  C    0.001408   0.004296  -0.000790  -0.488833  -2.812188  10.033922
    43  C    0.000331   0.003786   0.000334  -1.485336  -2.430265   1.979915
    44  H   -0.000486  -0.003549   0.001021  -0.041560   0.645593  -0.108048
    45  C    0.000300  -0.001084  -0.000132  -1.877811   1.438105  -1.746144
    46  H   -0.000005   0.000334  -0.000073   0.004346  -0.089118   0.586444
    47  C    0.000355   0.001666  -0.000139   0.213275  -0.496120  -0.739056
    48  H   -0.000057   0.000099   0.000027   0.016730  -0.096834   0.052299
    49  H   -0.000014  -0.000051   0.000004   0.021047   0.041369  -0.089227
    50  H    0.000004   0.000035  -0.000001   0.013752  -0.018321  -0.018447
              43         44         45         46         47         48
     1  C   -0.008961   0.009458  -0.006394  -0.057772  -0.005455  -0.000291
     2  C   -0.038234  -0.000358   0.063434  -0.025833  -0.001889   0.000064
     3  C   -0.002283  -0.003874   0.000837   0.014565  -0.003743   0.000288
     4  C   -0.013442   0.021913  -0.005953  -0.025320   0.014875  -0.001766
     5  C    0.003299  -0.001644  -0.000438   0.004040  -0.001010   0.000102
     6  C   -0.002641  -0.002097  -0.004047  -0.000073   0.008519  -0.001210
     7  C    0.000116  -0.000025   0.001131   0.000109  -0.000048  -0.000023
     8  H   -0.000046   0.000011   0.000135  -0.000095   0.000007  -0.000001
     9  C   -0.000731   0.001958  -0.001774  -0.000548   0.000735  -0.000202
    10  H    0.000020  -0.000014  -0.000001   0.000007   0.000001   0.000000
    11  H   -0.000213  -0.000086  -0.000109   0.000037   0.000053  -0.000006
    12  C    0.022614  -0.007238  -0.072866   0.064487  -0.004856   0.000398
    13  H    0.000132  -0.000062  -0.000509   0.000890  -0.000042   0.000001
    14  C   -0.019818  -0.001317   0.014543   0.038941   0.002910  -0.000235
    15  H   -0.000682   0.000112   0.006013  -0.003163  -0.000119  -0.000005
    16  C   -0.041410  -0.027435  -0.032483   0.116234  -0.038110   0.002982
    17  C   -0.000895   0.069370  -0.004911  -0.107001   0.027327  -0.005923
    18  H   -0.008436  -0.002100   0.020848   0.012454   0.003136   0.000004
    19  B   -0.074321  -0.243604   0.514242  -0.256070   0.113185   0.007828
    20  N    0.031474  -0.010390  -0.009897   0.002034   0.004875   0.000298
    21  C    0.001528   0.002297   0.000326   0.000429  -0.000538  -0.000020
    22  H    0.000182  -0.000287  -0.000003  -0.000056   0.000063   0.000002
    23  H    0.001709   0.000408  -0.001133   0.000034  -0.000223   0.000122
    24  H    0.000297   0.000117   0.000236   0.000038  -0.000112   0.000014
    25  C    0.027871   0.039230  -0.001526   0.004898  -0.030845   0.001954
    26  H    0.030949   0.009166  -0.003928  -0.002432   0.019512  -0.003058
    27  H   -0.035808   0.002341   0.006526   0.000753  -0.006968  -0.000186
    28  H   -0.023317   0.002922  -0.043441   0.015855   0.009528   0.000212
    29  C   -0.135617   0.025894  -0.067997   0.104025   0.186966  -0.006159
    30  C   -0.033856   0.045551  -0.048526  -0.033535   0.002337  -0.003105
    31  C    0.038116  -0.011015  -0.007141  -0.006344  -0.047767   0.000614
    32  C   -0.028161  -0.005014   0.016348  -0.012586  -0.006456  -0.001229
    33  H    0.010537   0.005291  -0.002865   0.005777  -0.004613   0.000217
    34  C    0.071679  -0.011702  -0.013517   0.003608   0.005154  -0.000255
    35  H   -0.026499   0.006729  -0.019917  -0.004145   0.003063  -0.002284
    36  C   -0.021258   0.021719   0.000890  -0.004508  -0.008110   0.000826
    37  H    0.000331  -0.000486   0.000300  -0.000005   0.000355  -0.000057
    38  H    0.003786  -0.003549  -0.001084   0.000334   0.001666   0.000099
    39  H    0.000334   0.001021  -0.000132  -0.000073  -0.000139   0.000027
    40  C   -1.485336  -0.041560  -1.877811   0.004346   0.213275   0.016730
    41  C   -2.430265   0.645593   1.438105  -0.089118  -0.496120  -0.096834
    42  C    1.979915  -0.108048  -1.746144   0.586444  -0.739056   0.052299
    43  C    9.628877  -0.207885  -1.619807   0.033649   0.301641   0.450349
    44  H   -0.207885   0.549463   0.042225  -0.009172  -0.020966  -0.011375
    45  C   -1.619807   0.042225   9.346280  -0.126037   0.364983  -0.022852
    46  H    0.033649  -0.009172  -0.126037   0.547924  -0.011074   0.000270
    47  C    0.301641  -0.020966   0.364983  -0.011074   6.301417  -0.069473
    48  H    0.450349  -0.011375  -0.022852   0.000270  -0.069473   0.460645
    49  H   -0.019130   0.000287   0.428908  -0.013595  -0.052704   0.001607
    50  H   -0.052002   0.003588  -0.065324   0.003304   0.473463  -0.012084
              49         50
     1  C    0.002920  -0.000041
     2  C    0.000385  -0.000227
     3  C   -0.000107  -0.000012
     4  C    0.000043   0.000104
     5  C   -0.000003   0.000005
     6  C    0.000124  -0.000017
     7  C    0.000016  -0.000007
     8  H    0.000001  -0.000000
     9  C    0.000037  -0.000031
    10  H   -0.000000   0.000000
    11  H   -0.000004   0.000000
    12  C   -0.001294   0.000210
    13  H   -0.000005   0.000002
    14  C    0.000495   0.000112
    15  H    0.000252  -0.000022
    16  C   -0.002296  -0.000279
    17  C    0.001563   0.000850
    18  H   -0.000692  -0.000119
    19  B    0.006239  -0.012655
    20  N   -0.000088   0.000054
    21  C    0.000046   0.000016
    22  H   -0.000002   0.000002
    23  H    0.000001   0.000003
    24  H    0.000005  -0.000002
    25  C    0.000655   0.000654
    26  H    0.000051   0.000405
    27  H   -0.000055  -0.000005
    28  H   -0.001613  -0.000013
    29  C   -0.010907   0.004247
    30  C    0.000508  -0.000606
    31  C    0.000710   0.000170
    32  C    0.000139  -0.000378
    33  H    0.000128  -0.000013
    34  C   -0.000015   0.000652
    35  H   -0.000035   0.000145
    36  C    0.000298  -0.000084
    37  H   -0.000014   0.000004
    38  H   -0.000051   0.000035
    39  H    0.000004  -0.000001
    40  C    0.021047   0.013752
    41  C    0.041369  -0.018321
    42  C   -0.089227  -0.018447
    43  C   -0.019130  -0.052002
    44  H    0.000287   0.003588
    45  C    0.428908  -0.065324
    46  H   -0.013595   0.003304
    47  C   -0.052704   0.473463
    48  H    0.001607  -0.012084
    49  H    0.456153  -0.011983
    50  H   -0.011983   0.471199
 Mulliken charges:
               1
     1  C    0.057067
     2  C   -0.023288
     3  C    0.222489
     4  C   -0.261788
     5  C   -0.347418
     6  C    0.112682
     7  C   -0.443289
     8  H    0.208146
     9  C   -0.458514
    10  H    0.234387
    11  H    0.190173
    12  C   -0.209613
    13  H    0.227140
    14  C   -0.370145
    15  H    0.232999
    16  C   -0.287164
    17  C    0.597597
    18  H    0.228182
    19  B   -0.941042
    20  N    0.386598
    21  C   -0.413451
    22  H    0.186138
    23  H    0.165422
    24  H    0.164598
    25  C   -0.565091
    26  H    0.210204
    27  H    0.201498
    28  H    0.197863
    29  C    0.670922
    30  C    0.029310
    31  C   -0.219128
    32  C   -0.556520
    33  H    0.189307
    34  C   -0.331447
    35  H    0.240877
    36  C   -0.411968
    37  H    0.238798
    38  H    0.231640
    39  H    0.226436
    40  C    0.478680
    41  C   -0.156007
    42  C   -0.006491
    43  C   -0.308351
    44  H    0.224635
    45  C   -0.457740
    46  H    0.223070
    47  C   -0.508608
    48  H    0.240677
    49  H    0.239831
    50  H    0.219697
 Sum of Mulliken charges =  -0.00000
 Mulliken charges with hydrogens summed into heavy atoms:
               1
     1  C    0.057067
     2  C   -0.023288
     3  C    0.222489
     4  C   -0.261788
     5  C   -0.139272
     6  C    0.112682
     7  C   -0.208902
     9  C   -0.268341
    12  C    0.017527
    14  C   -0.137147
    16  C   -0.058982
    17  C    0.597597
    19  B   -0.941042
    20  N    0.386598
    21  C    0.102708
    25  C    0.044474
    29  C    0.670922
    30  C    0.218617
    31  C    0.021749
    32  C   -0.317721
    34  C   -0.099806
    36  C   -0.185532
    40  C    0.478680
    41  C    0.068628
    42  C    0.216579
    43  C   -0.067674
    45  C   -0.217909
    47  C   -0.288911
 Electronic spatial extent (au):  <R**2>=          18688.2785
 Charge=              0.0000 electrons
 Dipole moment (field-independent basis, Debye):
    X=             -0.8248    Y=              0.0479    Z=              2.4389  Tot=              2.5750
 Quadrupole moment (field-independent basis, Debye-Ang):
   XX=           -166.0918   YY=           -148.0789   ZZ=           -141.3653
   XY=             -5.8060   XZ=              3.4558   YZ=              7.4137
 Traceless Quadrupole moment (field-independent basis, Debye-Ang):
   XX=            -14.2464   YY=              3.7664   ZZ=             10.4800
   XY=             -5.8060   XZ=              3.4558   YZ=              7.4137
 Octapole moment (field-independent basis, Debye-Ang**2):
  XXX=          -1057.0515  YYY=          -1130.9147  ZZZ=           -694.1188  XYY=           -370.8821
  XXY=           -407.5915  XXZ=           -223.1257  XZZ=           -299.4750  YZZ=           -358.6923
  YYZ=           -187.7217  XYZ=             29.4851
 Hexadecapole moment (field-independent basis, Debye-Ang**3):
 XXXX=          -7881.5058 YYYY=         -10680.6202 ZZZZ=          -6722.3971 XXXY=          -2123.6536
 XXXZ=          -2027.2957 YYYX=          -2198.6230 YYYZ=          -1013.9796 ZZZX=          -2042.6492
 ZZZY=          -1306.0439 XXYY=          -3142.7075 XXZZ=          -2230.7672 YYZZ=          -2789.6957
 XXYZ=           -203.8343 YYXZ=           -583.6356 ZZXY=           -573.6279
 N-N= 2.399875476752D+03 E-N=-7.314603400344D+03  KE= 1.078752035861D+03
 Breneman (CHELPG) radii used.
 Generate Potential Derived Charges using the Breneman model, NDens= 1.
 Grid spacing= 0.300 Box extension= 2.800
 NStep X,Y,Z=   45     52     51   Total possible points=      119340
 Number of Points to Fit=   27279

 **********************************************************************

            Electrostatic Properties Using The SCF Density.

 **********************************************************************

       Atomic Center    1 is at   1.941366  2.606722 -0.135101
       Atomic Center    2 is at   1.796481  2.778978 -1.535449
       Atomic Center    3 is at   0.804362  3.886205 -1.298404
       Atomic Center    4 is at   0.926629  3.707211  0.095937
       Atomic Center    5 is at   0.041961  4.866887 -1.871045
       Atomic Center    6 is at   0.261769  4.507880  1.009165
       Atomic Center    7 is at  -0.637180  5.696574 -0.953810
       Atomic Center    8 is at  -0.039473  5.018392 -2.939969
       Atomic Center    9 is at  -0.538232  5.527970  0.415671
       Atomic Center   10 is at  -1.269970  6.494007 -1.328700
       Atomic Center   11 is at  -1.104857  6.194197  1.053926
       Atomic Center   12 is at   2.512081  2.058646 -2.444566
       Atomic Center   13 is at   2.420621  2.187425 -3.516530
       Atomic Center   14 is at   3.414666  1.114767 -1.893453
       Atomic Center   15 is at   4.015806  0.505693 -2.559764
       Atomic Center   16 is at   3.558622  0.955616 -0.529952
       Atomic Center   17 is at   2.820871  1.716515  0.431362
       Atomic Center   18 is at   4.279698  0.225367 -0.173895
       Atomic Center   19 is at   3.099450  1.516290  1.968502
       Atomic Center   20 is at   0.389398  4.360582  2.383744
       Atomic Center   21 is at  -0.187282  5.356923  3.259139
       Atomic Center   22 is at  -1.287096  5.308486  3.300457
       Atomic Center   23 is at   0.196445  5.192891  4.268158
       Atomic Center   24 is at   0.110286  6.359997  2.948590
       Atomic Center   25 is at   0.363804  3.018267  2.934563
       Atomic Center   26 is at   1.050525  2.939662  3.781605
       Atomic Center   27 is at  -0.646236  2.744813  3.274255
       Atomic Center   28 is at   0.657138  2.288174  2.182499
       Atomic Center   29 is at   3.910769  2.616875  2.731332
       Atomic Center   30 is at   3.791074  3.971824  2.382516
       Atomic Center   31 is at   4.811083  2.290237  3.758951
       Atomic Center   32 is at   4.497806  4.957199  3.058793
       Atomic Center   33 is at   3.125231  4.264665  1.578960
       Atomic Center   34 is at   5.549324  3.268234  4.413883
       Atomic Center   35 is at   4.951981  1.251029  4.037148
       Atomic Center   36 is at   5.382426  4.606478  4.073678
       Atomic Center   37 is at   4.371365  5.998459  2.783401
       Atomic Center   38 is at   6.250994  2.988210  5.191998
       Atomic Center   39 is at   5.948071  5.373625  4.591545
       Atomic Center   40 is at   2.588053  0.216600  2.680240
       Atomic Center   41 is at   2.427814  0.156748  4.075303
       Atomic Center   42 is at   2.195908 -0.911704  1.940555
       Atomic Center   43 is at   1.920285 -0.973871  4.701579
       Atomic Center   44 is at   2.684402  1.019588  4.680109
       Atomic Center   45 is at   1.708732 -2.054605  2.561034
       Atomic Center   46 is at   2.270533 -0.893052  0.858703
       Atomic Center   47 is at   1.569705 -2.087079  3.944626
       Atomic Center   48 is at   1.796697 -0.988521  5.778863
       Atomic Center   49 is at   1.424426 -2.915568  1.966187
       Atomic Center   50 is at   1.178565 -2.974099  4.431193
   27279 points will be used for fitting atomic charges
 Fitting point charges to electrostatic potential
 Charges from ESP fit, RMS=   0.00477 RRMS=   0.39493:
 ESP charges:
               1
     1  C    0.154484
     2  C    0.015169
     3  C    0.091555
     4  C   -0.165779
     5  C   -0.243909
     6  C    0.297556
     7  C   -0.064012
     8  H    0.138549
     9  C   -0.285468
    10  H    0.106078
    11  H    0.134071
    12  C   -0.205451
    13  H    0.132708
    14  C   -0.056841
    15  H    0.095307
    16  C   -0.154007
    17  C   -0.204411
    18  H    0.073028
    19  B    0.491622
    20  N   -0.156738
    21  C   -0.270318
    22  H    0.099208
    23  H    0.105050
    24  H    0.108404
    25  C    0.156011
    26  H    0.001909
    27  H   -0.004417
    28  H   -0.102145
    29  C   -0.197979
    30  C    0.013696
    31  C    0.019787
    32  C   -0.142185
    33  H   -0.005046
    34  C   -0.125722
    35  H   -0.002343
    36  C   -0.073281
    37  H    0.107089
    38  H    0.103506
    39  H    0.092772
    40  C   -0.159292
    41  C    0.051188
    42  C   -0.007353
    43  C   -0.196163
    44  H    0.056484
    45  C   -0.172533
    46  H    0.053619
    47  C   -0.009364
    48  H    0.109048
    49  H    0.110704
    50  H    0.086155
 Sum of ESP charges =  -0.00000
 ESP charges with hydrogens summed into heavy atoms:
               1
     1  C    0.154484
     2  C    0.015169
     3  C    0.091555
     4  C   -0.165779
     5  C   -0.105361
     6  C    0.297556
     7  C    0.042066
     9  C   -0.151397
    12  C   -0.072743
    14  C    0.038466
    16  C   -0.080979
    17  C   -0.204411
    19  B    0.491622
    20  N   -0.156738
    21  C    0.042344
    25  C    0.051359
    29  C   -0.197979
    30  C    0.008650
    31  C    0.017444
    32  C   -0.035096
    34  C   -0.022216
    36  C    0.019491
    40  C   -0.159292
    41  C    0.107672
    42  C    0.046267
    43  C   -0.087115
    45  C   -0.061829
    47  C    0.076792
 Charge=  -0.00000 Dipole=    -0.7955     0.0541     2.1978 Tot=     2.3380
 -----------------------------------------------------------------

              Electrostatic Properties (Atomic Units)

 -----------------------------------------------------------------
    Center     Electric         -------- Electric Field --------
               Potential          X             Y             Z
 -----------------------------------------------------------------
    1 Atom    -14.769224
    2 Atom    -14.774006
    3 Atom    -14.771318
    4 Atom    -14.776924
    5 Atom    -14.782199
    6 Atom    -14.730433
    7 Atom    -14.774408
    8 Atom     -1.107357
    9 Atom    -14.777581
   10 Atom     -1.109318
   11 Atom     -1.104683
   12 Atom    -14.777190
   13 Atom     -1.105253
   14 Atom    -14.778704
   15 Atom     -1.111793
   16 Atom    -14.776964
   17 Atom    -14.789264
   18 Atom     -1.113410
   19 Atom    -11.463339
   20 Atom    -18.374442
   21 Atom    -14.743623
   22 Atom     -1.111579
   23 Atom     -1.105732
   24 Atom     -1.106836
   25 Atom    -14.748389
   26 Atom     -1.116170
   27 Atom     -1.115029
   28 Atom     -1.109526
   29 Atom    -14.791195
   30 Atom    -14.779216
   31 Atom    -14.773662
   32 Atom    -14.777909
   33 Atom     -1.119993
   34 Atom    -14.775091
   35 Atom     -1.110063
   36 Atom    -14.771112
   37 Atom     -1.108687
   38 Atom     -1.104779
   39 Atom     -1.102807
   40 Atom    -14.786729
   41 Atom    -14.769329
   42 Atom    -14.772322
   43 Atom    -14.770044
   44 Atom     -1.106121
   45 Atom    -14.771916
   46 Atom     -1.111519
   47 Atom    -14.764964
   48 Atom     -1.099966
   49 Atom     -1.102690
   50 Atom     -1.097428
 -----------------------------------------------------------------
 Unable to Open any file for archive entry.
 1\1\GINC-IRENE5915\SP\RwB97XD\GenECP\C26H22B1N1\PENASFRA\11-Apr-2024\0
 \\# wb97xd/genecp scrf=(solvent=toluene,pcm) nosymm pop=(chelpg) scfcy
 c=300\\ph_biphenylene_chelpg\\0,1\C,0,1.941366,2.606722,-0.135101\C,0,
 1.796481,2.778978,-1.535449\C,0,0.804362,3.886205,-1.298404\C,0,0.9266
 29,3.707211,0.095937\C,0,0.041961,4.866887,-1.871045\C,0,0.261769,4.50
 788,1.009165\C,0,-0.63718,5.696574,-0.95381\H,0,-0.039473,5.018392,-2.
 939969\C,0,-0.538232,5.52797,0.415671\H,0,-1.26997,6.494007,-1.3287\H,
 0,-1.104857,6.194197,1.053926\C,0,2.512081,2.058646,-2.444566\H,0,2.42
 0621,2.187425,-3.51653\C,0,3.414666,1.114767,-1.893453\H,0,4.015806,0.
 505693,-2.559764\C,0,3.558622,0.955616,-0.529952\C,0,2.820871,1.716515
 ,0.431362\H,0,4.279698,0.225367,-0.173895\B,0,3.09945,1.51629,1.968502
 \N,0,0.389398,4.360582,2.383744\C,0,-0.187282,5.356923,3.259139\H,0,-1
 .287096,5.308486,3.300457\H,0,0.196445,5.192891,4.268158\H,0,0.110286,
 6.359997,2.94859\C,0,0.363804,3.018267,2.934563\H,0,1.050525,2.939662,
 3.781605\H,0,-0.646236,2.744813,3.274255\H,0,0.657138,2.288174,2.18249
 9\C,0,3.910769,2.616875,2.731332\C,0,3.791074,3.971824,2.382516\C,0,4.
 811083,2.290237,3.758951\C,0,4.497806,4.957199,3.058793\H,0,3.125231,4
 .264665,1.57896\C,0,5.549324,3.268234,4.413883\H,0,4.951981,1.251029,4
 .037148\C,0,5.382426,4.606478,4.073678\H,0,4.371365,5.998459,2.783401\
 H,0,6.250994,2.98821,5.191998\H,0,5.948071,5.373625,4.591545\C,0,2.588
 053,0.2166,2.68024\C,0,2.427814,0.156748,4.075303\C,0,2.195908,-0.9117
 04,1.940555\C,0,1.920285,-0.973871,4.701579\H,0,2.684402,1.019588,4.68
 0109\C,0,1.708732,-2.054605,2.561034\H,0,2.270533,-0.893052,0.858703\C
 ,0,1.569705,-2.087079,3.944626\H,0,1.796697,-0.988521,5.778863\H,0,1.4
 24426,-2.915568,1.966187\H,0,1.178565,-2.974099,4.431193\\Version=AS64
 L-G16RevC.02\HF=-1083.4636549\RMSD=6.059e-09\Dipole=-0.3244838,0.01882
 73,0.9595266\Quadrupole=-10.5918743,2.8002477,7.7916266,-4.3166283,2.5
 692665,5.5118713\PG=C01 [X(C26H22B1N1)]\\@
 The archive entry for this job was punched.


 ALTHOUGH J.J. COULD DIAGNOSE THE FAULTS OF AN
 APPARATUS WITH UNCANNY ACCURACY, IT WAS JUST AS
 WELL NOT TO LET HIM HANDLE IT.
   -- GEORGE THOMPSON, ABOUT HIS FATHER
 Job cpu time:       0 days  4 hours 31 minutes 52.9 seconds.
 Elapsed time:       0 days  0 hours  2 minutes 39.1 seconds.
 File lengths (MBytes):  RWF=    510 Int=      0 D2E=      0 Chk=     36 Scr=      1
 Normal termination of Gaussian 16 at Thu Apr 11 15:02:13 2024.
