 Entering Gaussian System, Link 0=/ccc/products/gaussian-16-C.02/system/default/g16/g16
 Input=ph_dimethylaniline_chelpg.gjf
 Output=ph_dimethylaniline_chelpg.log
 Initial command:
 /ccc/products/gaussian-16-C.02/system/default/g16/l1.exe "/ccc/scratch/cont003/gen7343/penasfra/flp/b-n_flp/ph_dimethylaniline/Reactant/Gau-2107735.inp" -scrdir="/ccc/scratch/cont003/gen7343/penasfra/flp/b-n_flp/ph_dimethylaniline/Reactant/"
 Entering Link 1 = /ccc/products/gaussian-16-C.02/system/default/g16/l1.exe PID=   2107784.
  
 Copyright (c) 1988-2021, Gaussian, Inc.  All Rights Reserved.
  
 This is part of the Gaussian(R) 16 program.  It is based on
 the Gaussian(R) 09 system (copyright 2009, Gaussian, Inc.),
 the Gaussian(R) 03 system (copyright 2003, Gaussian, Inc.),
 the Gaussian(R) 98 system (copyright 1998, Gaussian, Inc.),
 the Gaussian(R) 94 system (copyright 1995, Gaussian, Inc.),
 the Gaussian 92(TM) system (copyright 1992, Gaussian, Inc.),
 the Gaussian 90(TM) system (copyright 1990, Gaussian, Inc.),
 the Gaussian 88(TM) system (copyright 1988, Gaussian, Inc.),
 the Gaussian 86(TM) system (copyright 1986, Carnegie Mellon
 University), and the Gaussian 82(TM) system (copyright 1983,
 Carnegie Mellon University). Gaussian is a federally registered
 trademark of Gaussian, Inc.
  
 This software contains proprietary and confidential information,
 including trade secrets, belonging to Gaussian, Inc.
  
 This software is provided under written license and may be
 used, copied, transmitted, or stored only in accord with that
 written license.
  
 The following legend is applicable only to US Government
 contracts under FAR:
  
                    RESTRICTED RIGHTS LEGEND
  
 Use, reproduction and disclosure by the US Government is
 subject to restrictions as set forth in subparagraphs (a)
 and (c) of the Commercial Computer Software - Restricted
 Rights clause in FAR 52.227-19.
  
 Gaussian, Inc.
 340 Quinnipiac St., Bldg. 40, Wallingford CT 06492
  
  
 ---------------------------------------------------------------
 Warning -- This program may not be used in any manner that
 competes with the business of Gaussian, Inc. or will provide
 assistance to any competitor of Gaussian, Inc.  The licensee
 of this program is prohibited from giving any competitor of
 Gaussian, Inc. access to this program.  By using this program,
 the user acknowledges that Gaussian, Inc. is engaged in the
 business of creating and licensing software in the field of
 computational chemistry and represents and warrants to the
 licensee that it is not a competitor of Gaussian, Inc. and that
 it will not use this program in any manner prohibited above.
 ---------------------------------------------------------------
  

 Cite this work as:
 Gaussian 16, Revision C.02,
 M. J. Frisch, G. W. Trucks, H. B. Schlegel, G. E. Scuseria, 
 M. A. Robb, J. R. Cheeseman, G. Scalmani, V. Barone, 
 G. A. Petersson, H. Nakatsuji, X. Li, M. Caricato, A. V. Marenich, 
 J. Bloino, B. G. Janesko, R. Gomperts, B. Mennucci, H. P. Hratchian, 
 J. V. Ortiz, A. F. Izmaylov, J. L. Sonnenberg, D. Williams-Young, 
 F. Ding, F. Lipparini, F. Egidi, J. Goings, B. Peng, A. Petrone, 
 T. Henderson, D. Ranasinghe, V. G. Zakrzewski, J. Gao, N. Rega, 
 G. Zheng, W. Liang, M. Hada, M. Ehara, K. Toyota, R. Fukuda, 
 J. Hasegawa, M. Ishida, T. Nakajima, Y. Honda, O. Kitao, H. Nakai, 
 T. Vreven, K. Throssell, J. A. Montgomery, Jr., J. E. Peralta, 
 F. Ogliaro, M. J. Bearpark, J. J. Heyd, E. N. Brothers, K. N. Kudin, 
 V. N. Staroverov, T. A. Keith, R. Kobayashi, J. Normand, 
 K. Raghavachari, A. P. Rendell, J. C. Burant, S. S. Iyengar, 
 J. Tomasi, M. Cossi, J. M. Millam, M. Klene, C. Adamo, R. Cammi, 
 J. W. Ochterski, R. L. Martin, K. Morokuma, O. Farkas, 
 J. B. Foresman, and D. J. Fox, Gaussian, Inc., Wallingford CT, 2019.
 
 ******************************************
 Gaussian 16:  AS64L-G16RevC.02  7-Dec-2021
                 9-Apr-2024 
 ******************************************
 %nprocshared=128
 Will use up to  128 processors via shared memory.
 %mem=30GB
 %chk=ph_dimethylaniline_chelpg.chk
 ----------------------------------------------------------------------
 # wb97xd/genecp scrf=(solvent=toluene,pcm) nosymm pop=(chelpg) scfcyc=
 300
 ----------------------------------------------------------------------
 1/38=1,172=1/1;
 2/12=2,15=1,17=6,18=5,40=1/2;
 3/5=7,11=2,16=1,17=8,25=1,30=1,70=2201,72=13,74=-58/1,2,3;
 4//1;
 5/5=2,7=300,38=5,53=13/2;
 6/7=2,8=2,9=2,10=2,15=8,20=3,28=1/1,2;
 99/5=1,9=1/99;
 -------------------------
 ph_dimethylaniline_chelpg
 -------------------------
 Symbolic Z-matrix:
 Charge =  0 Multiplicity = 1
 C                    -0.67579   0.83672   0.4529 
 C                     0.70049   0.9484    0.60518 
 C                     1.39767   2.12777   0.30842 
 C                     0.64619   3.27043  -0.07331 
 C                    -0.74418   3.1512   -0.23103 
 C                    -1.38795   1.94661   0.01705 
 H                    -1.18046  -0.09877   0.66383 
 H                     1.26736   0.07823   0.9226 
 H                    -1.33618   4.00911  -0.52322 
 H                    -2.46412   1.88804  -0.1094 
 N                     1.28235   4.48412  -0.29906 
 B                     2.95508   2.01786   0.21084 
 C                     2.33316   4.95726   0.58246 
 H                     2.62092   4.18283   1.29393 
 H                     3.22378   5.25001   0.01756 
 H                     1.98385   5.82273   1.16314 
 C                     0.5806    5.54662  -0.98176 
 H                     0.06017   5.1604   -1.8601 
 H                    -0.14726   6.06629  -0.33828 
 H                     1.31159   6.28194  -1.32509 
 C                     3.74894   1.26331   1.33351 
 C                     4.92118   0.54121   1.05936 
 C                     3.29858   1.28337   2.66334 
 C                     5.60762  -0.13365   2.06139 
 C                     3.99433   0.63477   3.67566 
 C                     5.14921  -0.08004   3.37375 
 H                     6.50227  -0.69794   1.82162 
 H                     3.63327   0.67716   4.69748 
 C                     3.70246   2.57926  -1.05099 
 C                     3.06355   2.62343  -2.2993 
 C                     5.01489   3.06777  -0.97869 
 C                     3.70797   3.11506  -3.42606 
 C                     5.65828   3.58793  -2.09639 
 C                     5.00717   3.60527  -3.32467 
 H                     3.19681   3.12681  -4.3827 
 H                     6.66852   3.97356  -2.01114 
 H                     5.53652   3.05708  -0.02673 
 H                     5.50941   4.00057  -4.2012 
 H                     2.04204   2.26557  -2.38261 
 H                     2.38649   1.82062   2.90445 
 H                     5.68907  -0.59755   4.15948 
 H                     5.29248   0.49592   0.04081 
 
                          Input orientation:                          
 ---------------------------------------------------------------------
 Center     Atomic      Atomic             Coordinates (Angstroms)
 Number     Number       Type             X           Y           Z
 ---------------------------------------------------------------------
      1          6           0       -0.675785    0.836720    0.452904
      2          6           0        0.700493    0.948398    0.605175
      3          6           0        1.397672    2.127770    0.308418
      4          6           0        0.646188    3.270428   -0.073310
      5          6           0       -0.744178    3.151200   -0.231030
      6          6           0       -1.387947    1.946609    0.017054
      7          1           0       -1.180458   -0.098767    0.663834
      8          1           0        1.267364    0.078231    0.922598
      9          1           0       -1.336184    4.009111   -0.523215
     10          1           0       -2.464115    1.888039   -0.109398
     11          7           0        1.282345    4.484124   -0.299062
     12          5           0        2.955075    2.017856    0.210838
     13          6           0        2.333158    4.957259    0.582458
     14          1           0        2.620920    4.182828    1.293934
     15          1           0        3.223781    5.250012    0.017555
     16          1           0        1.983848    5.822728    1.163138
     17          6           0        0.580596    5.546617   -0.981759
     18          1           0        0.060172    5.160402   -1.860099
     19          1           0       -0.147256    6.066293   -0.338283
     20          1           0        1.311592    6.281939   -1.325093
     21          6           0        3.748937    1.263308    1.333513
     22          6           0        4.921178    0.541205    1.059358
     23          6           0        3.298577    1.283367    2.663343
     24          6           0        5.607617   -0.133645    2.061385
     25          6           0        3.994329    0.634767    3.675664
     26          6           0        5.149210   -0.080038    3.373745
     27          1           0        6.502266   -0.697937    1.821619
     28          1           0        3.633272    0.677164    4.697482
     29          6           0        3.702464    2.579259   -1.050985
     30          6           0        3.063548    2.623425   -2.299298
     31          6           0        5.014890    3.067770   -0.978693
     32          6           0        3.707966    3.115065   -3.426059
     33          6           0        5.658279    3.587934   -2.096387
     34          6           0        5.007169    3.605268   -3.324666
     35          1           0        3.196808    3.126805   -4.382699
     36          1           0        6.668519    3.973559   -2.011137
     37          1           0        5.536522    3.057080   -0.026734
     38          1           0        5.509405    4.000572   -4.201195
     39          1           0        2.042040    2.265566   -2.382614
     40          1           0        2.386490    1.820624    2.904454
     41          1           0        5.689069   -0.597552    4.159484
     42          1           0        5.292480    0.495917    0.040806
 ---------------------------------------------------------------------
                    Distance matrix (angstroms):
                    1          2          3          4          5
     1  C    0.000000
     2  C    1.389172   0.000000
     3  C    2.446816   1.401799   0.000000
     4  C    2.819122   2.419734   1.419899   0.000000
     5  C    2.414386   2.763811   2.434324   1.404353   0.000000
     6  C    1.388882   2.388282   2.806668   2.428656   1.388173
     7  H    1.083661   2.153595   3.424988   3.902754   3.399030
     8  H    2.138164   1.085952   2.143550   3.401149   3.849714
     9  H    3.384228   3.845683   3.421261   2.162837   1.082522
    10  H    2.149321   3.377615   3.891714   3.403863   2.137417
    11  N    4.207527   3.695613   2.436131   1.388783   2.426543
    12  B    3.825810   2.526338   1.564323   2.642089   3.894122
    13  C    5.103858   4.328635   2.992698   2.474126   3.659728
    14  H    4.772005   3.824129   2.586666   2.569318   3.835838
    15  H    5.905361   5.021570   3.628728   3.251307   4.495721
    16  H    5.695468   5.071234   3.837560   3.135662   4.064836
    17  C    5.081327   4.865835   3.744420   2.451656   2.838423
    18  H    4.958411   4.922252   3.960837   2.666089   2.708826
    19  H    5.315426   5.272726   4.279835   2.918326   2.977513
    20  H    6.063114   5.704913   4.464626   3.328501   3.901883
    21  C    4.531624   3.150025   2.706762   3.954078   5.118595
    22  C    5.637474   4.264536   3.936521   5.196839   6.369728
    23  C    4.569583   3.331411   3.141994   4.298005   5.311315
    24  C    6.558198   5.231752   5.090239   6.384388   7.509372
    25  C    5.677758   4.513936   4.506665   5.675523   6.636877
    26  C    6.580450   5.339826   5.323972   6.586730   7.626751
    27  H    7.466791   6.152294   6.027543   7.323409   8.458142
    28  H    6.050609   5.041997   5.134788   6.197431   7.040820
    29  C    4.946432   3.796631   2.713648   3.282436   4.557638
    30  C    4.974891   4.101915   3.133847   3.349219   4.365210
    31  C    6.277805   5.061067   3.952786   4.466133   5.807997
    32  C    6.281280   5.476330   4.500947   4.543077   5.480064
    33  C    7.361279   6.232594   5.105677   5.414306   6.682945
    34  C    7.364160   6.407033   5.330175   5.449916   6.546354
    35  H    6.604886   5.987982   5.122650   5.009703   5.724362
    36  H    8.357635   7.184290   6.047239   6.365378   7.667668
    37  H    6.614591   5.313476   4.255117   4.895207   6.284727
    38  H    8.362247   7.452690   6.383600   6.420547   7.455933
    39  H    4.179514   3.530094   2.770533   2.879416   3.629969
    40  H    4.044217   2.981618   2.794907   3.741345   4.626313
    41  H    7.503815   6.317354   6.377631   7.635998   8.643866
    42  H    5.992175   4.648612   4.231322   5.412852   6.600429
                    6          7          8          9         10
     6  C    0.000000
     7  H    2.155212   0.000000
     8  H    3.370686   2.467817   0.000000
     9  H    2.132718   4.278785   4.931598   0.000000
    10  H    1.085153   2.488586   4.273682   2.437708   0.000000
    11  N    3.697211   5.291073   4.572152   2.670688   4.561972
    12  B    4.347927   4.667754   2.667792   4.787362   5.430196
    13  C    4.819784   6.157558   5.005649   3.947856   5.736951
    14  H    4.764673   5.760170   4.337940   4.357853   5.752650
    15  H    5.672787   6.958767   5.603034   4.756632   6.608414
    16  H    5.263726   6.732477   5.794002   4.141933   6.073343
    17  C    4.222896   6.138375   5.831078   2.499647   4.839057
    18  H    3.993647   5.963913   5.918545   2.250009   4.488356
    19  H    4.317103   6.330854   6.280753   2.383222   4.783098
    20  H    5.280526   7.132990   6.598490   3.580429   5.919479
    21  C    5.346732   5.157776   2.780551   6.070035   6.408923
    22  C    6.547260   6.147842   3.685567   7.327038   7.597533
    23  C    5.422752   5.096085   2.934003   6.250187   6.423577
    24  C    7.579226   6.930536   4.492162   8.488755   8.599556
    25  C    6.638919   6.032215   3.914772   7.578334   7.590052
    26  C    7.622932   6.885395   4.593680   8.600452   8.600484
    27  H    8.515018   7.792543   5.367949   9.439060   9.529538
    28  H    6.980726   6.328063   4.495107   7.940594   7.858145
    29  C    5.239584   5.827122   4.009973   5.264123   6.276230
    30  C    5.063534   5.848253   4.481618   4.942898   5.990953
    31  C    6.576081   7.148929   5.157151   6.436593   7.621217
    32  C    6.260084   7.138111   5.838640   5.888062   7.113397
    33  C    7.537233   8.244932   6.380629   7.181558   8.532939
    34  C    7.403766   8.241040   6.668237   6.946175   8.313056
    35  H    6.463023   7.418374   6.415819   6.018480   7.200117
    36  H    8.551534   9.238276   7.276871   8.141894   9.558818
    37  H    7.013083   7.453461   5.291548   6.956072   8.086018
    38  H    8.341814   9.231866   7.722236   7.771081   9.207748
    39  H    4.198208   5.025476   4.038438   4.231987   5.061173
    40  H    4.753875   4.628991   2.866379   5.513319   5.711061
    41  H    8.585839   7.723908   5.521376   9.617858   9.532887
    42  H    6.836167   6.529988   4.141688   7.523286   7.881962
                   11         12         13         14         15
    11  N    0.000000
    12  B    3.023326   0.000000
    13  C    1.450911   3.027371   0.000000
    14  H    2.102427   2.443739   1.090297   0.000000
    15  H    2.110925   3.249060   1.094545   1.769595   0.000000
    16  H    2.102854   4.040694   1.099201   1.764154   1.782638
    17  C    1.444790   4.417306   2.421898   3.346882   2.841308
    18  H    2.094730   4.748141   3.342726   4.178637   3.679951
    19  H    2.132734   5.129896   2.868828   3.724832   3.486664
    20  H    2.070201   4.821050   2.537149   3.602764   2.554221
    21  C    4.372989   1.568426   4.026635   3.130110   4.230998
    22  C    5.534711   2.601162   5.140702   4.313656   5.112668
    23  C    4.804777   2.583070   4.331235   3.277404   4.768654
    24  C    6.753035   3.884515   6.231100   5.304835   6.232470
    25  C    6.162049   3.872726   5.568783   4.488611   5.939360
    26  C    7.019525   4.383990   6.410600   5.374932   6.586404
    27  H    7.654974   4.748969   7.134299   6.258208   7.027176
    28  H    6.707105   4.731530   6.078070   4.989857   6.555939
    29  C    3.170311   1.570338   3.193434   3.039707   2.916134
    30  C    3.261262   2.584427   3.779520   3.941950   3.506058
    31  C    4.049673   2.600027   3.633049   3.484147   2.993787
    32  C    4.187609   3.872691   4.620821   4.959851   4.080553
    33  C    4.814803   3.885324   4.484160   4.590613   3.627401
    34  C    4.878625   4.385288   4.923803   5.230605   4.129903
    35  H    4.709944   4.731679   5.361832   5.802671   4.885793
    36  H    5.674746   4.748854   5.146820   5.229756   4.196563
    37  H    4.495402   2.792901   3.774034   3.392964   3.187426
    38  H    5.773084   5.470082   5.821265   6.210717   4.958128
    39  H    3.136929   2.760613   4.015173   4.186646   4.008022
    40  H    4.309975   2.760028   3.902946   2.868578   4.560257
    41  H    8.069776   5.468719   7.410343   6.362150   7.578075
    42  H    5.665906   2.794400   5.380943   4.722380   5.184735
                   16         17         18         19         20
    16  H    0.000000
    17  C    2.577971   0.000000
    18  H    3.644059   1.091551   0.000000
    19  H    2.618242   1.101768   1.783140   0.000000
    20  H    2.618033   1.092214   1.763556   1.774411   0.000000
    21  C    4.892124   5.809097   6.244476   6.406550   6.180250
    22  C    6.044267   6.932601   7.313658   7.626862   7.188237
    23  C    4.958319   6.232936   6.780870   6.615127   6.696376
    24  C    7.029718   8.172946   8.612730   8.792963   8.431120
    25  C    6.104896   7.580992   8.161105   7.922498   8.005948
    26  C    7.053293   8.455879   8.986303   8.922393   8.790969
    27  H    7.960450   9.050942   9.453875   9.728110   9.250057
    28  H    6.456703   8.079863   8.710243   8.288186   8.548398
    29  C    4.286732   4.307675   4.536877   5.242871   4.416021
    30  C    4.836296   4.055368   3.955934   5.099822   4.171708
    31  C    4.622169   5.080124   5.450249   6.004083   4.915821
    32  C    5.600424   4.654835   4.465651   5.753855   4.492856
    33  C    5.396318   5.555331   5.819561   6.552666   5.171677
    34  C    5.847904   5.371461   5.388523   6.445403   4.981982
    35  H    6.284551   4.926099   4.509713   6.015036   4.780990
    36  H    5.953284   6.371573   6.715777   7.323439   5.873325
    37  H    4.656833   5.627706   6.146186   6.438770   5.471333
    38  H    6.672771   6.086722   6.043184   7.154516   5.576579
    39  H    5.022862   3.855322   3.546956   4.839197   4.217008
    40  H    4.383051   5.678638   6.266326   5.912776   6.240818
    41  H    7.995420   9.501562  10.053551   9.934759   9.827018
    42  H    6.370368   6.982626   7.262775   7.795096   7.154803
                   21         22         23         24         25
    21  C    0.000000
    22  C    1.403831   0.000000
    23  C    1.404163   2.399251   0.000000
    24  C    2.436384   1.389489   2.775237   0.000000
    25  C    2.437407   2.777204   1.389081   2.408122   0.000000
    26  C    2.815651   2.407141   2.405907   1.391150   1.391349
    27  H    3.415487   2.148570   3.859752   1.084578   3.391656
    28  H    3.416611   3.861753   2.148773   3.391822   1.084561
    29  C    2.723916   3.176866   3.954579   4.547120   5.119321
    30  C    3.939161   4.366578   5.145756   5.752328   6.365633
    31  C    3.194529   3.247455   4.403890   4.454487   5.350148
    32  C    5.107270   5.311836   6.372090   6.653934   7.527838
    33  C    4.562202   4.447989   5.790877   5.580303   6.693766
    34  C    5.363446   5.349350   6.645808   6.584038   7.671658
    35  H    6.037594   6.266958   7.283909   7.613721   8.472515
    36  H    5.201548   4.925667   6.359592   5.880482   7.116075
    37  H    2.874604   2.808535   3.923133   3.813925   4.685479
    38  H    6.420658   6.323500   7.706675   7.504752   8.698793
    39  H    4.210418   4.807289   5.292002   6.182126   6.570667
    40  H    2.152840   3.386139   1.085671   3.860776   2.141534
    41  H    3.900388   3.390753   3.389800   2.150317   2.150543
    42  H    2.154647   1.085064   3.387245   2.139719   3.862210
                   26         27         28         29         30
    26  C    0.000000
    27  H    2.149803   0.000000
    28  H    2.150280   4.288661   0.000000
    29  C    5.361266   5.179842   6.055380   0.000000
    30  C    6.621338   6.311750   7.284741   1.403014   0.000000
    31  C    5.373123   4.922863   6.312118   1.402259   2.397744
    32  C    7.650046   7.062947   8.481796   2.434768   1.388011
    33  C    6.605718   5.867860   7.663543   2.436289   2.775622
    34  C    7.646592   6.872928   8.649638   2.815062   2.406877
    35  H    8.617316   8.003016   9.414931   3.414061   2.147489
    36  H    6.909190   6.044877   8.067497   3.415179   3.860274
    37  H    4.642712   4.295256   5.621795   2.154338   3.386474
    38  H    8.611669   7.702990   9.682529   3.899870   3.390570
    39  H    6.949247   6.808197   7.428513   2.151429   1.085580
    40  H    3.386056   4.945229   2.465140   4.237076   5.308666
    41  H    1.084737   2.477293   2.478032   6.417766   7.680099
    42  H    3.385370   2.461740   4.946762   2.839097   3.869175
                   31         32         33         34         35
    31  C    0.000000
    32  C    2.774867   0.000000
    33  C    1.390597   2.407354   0.000000
    34  C    2.406772   1.392303   1.390293   0.000000
    35  H    3.859555   1.084703   3.390974   2.150760   0.000000
    36  H    2.149624   3.391739   1.084693   2.149670   4.288832
    37  H    1.085560   3.860361   2.140115   3.384831   4.945054
    38  H    3.391045   2.151776   2.150035   1.084808   2.478814
    39  H    3.384134   2.141433   3.861058   3.387367   2.464865
    40  H    4.852081   6.595246   6.231886   6.989624   7.447504
    41  H    6.347438   8.674604   7.526962   8.610528   9.646299
    42  H    2.780443   4.624908   3.776503   4.590846   5.557050
                   36         37         38         39         40
    36  H    0.000000
    37  H    2.461545   0.000000
    38  H    2.478029   4.279841   0.000000
    39  H    4.945659   4.288131   4.282535   0.000000
    40  H    6.865416   4.476984   8.061949   5.316926   0.000000
    41  H    7.741508   5.559139   9.543373   8.018560   4.281320
    42  H    4.265905   2.573650   5.506745   4.423797   4.289535
                   41         42
    41  H    0.000000
    42  H    4.279774   0.000000
 Symmetry turned off by external request.
 Stoichiometry    C20H20BN
 Framework group  C1[X(C20H20BN)]
 Deg. of freedom   120
 Full point group                 C1      NOp   1
 Rotational constants (GHZ):           0.3325478           0.2669980           0.1789255
 General basis read from cards:  (5D, 7F)
 ======================================================================================================
                                       Pseudopotential Parameters
 ======================================================================================================
  Center     Atomic      Valence      Angular      Power
  Number     Number     Electrons     Momentum     of R      Exponent        Coefficient   SO-Coeffient
 ======================================================================================================
    1          6
                                   No pseudopotential on this center.
    2          6
                                   No pseudopotential on this center.
    3          6
                                   No pseudopotential on this center.
    4          6
                                   No pseudopotential on this center.
    5          6
                                   No pseudopotential on this center.
    6          6
                                   No pseudopotential on this center.
    7          1
                                   No pseudopotential on this center.
    8          1
                                   No pseudopotential on this center.
    9          1
                                   No pseudopotential on this center.
   10          1
                                   No pseudopotential on this center.
   11          7
                                   No pseudopotential on this center.
   12          5
                                   No pseudopotential on this center.
   13          6
                                   No pseudopotential on this center.
   14          1
                                   No pseudopotential on this center.
   15          1
                                   No pseudopotential on this center.
   16          1
                                   No pseudopotential on this center.
   17          6
                                   No pseudopotential on this center.
   18          1
                                   No pseudopotential on this center.
   19          1
                                   No pseudopotential on this center.
   20          1
                                   No pseudopotential on this center.
   21          6
                                   No pseudopotential on this center.
   22          6
                                   No pseudopotential on this center.
   23          6
                                   No pseudopotential on this center.
   24          6
                                   No pseudopotential on this center.
   25          6
                                   No pseudopotential on this center.
   26          6
                                   No pseudopotential on this center.
   27          1
                                   No pseudopotential on this center.
   28          1
                                   No pseudopotential on this center.
   29          6
                                   No pseudopotential on this center.
   30          6
                                   No pseudopotential on this center.
   31          6
                                   No pseudopotential on this center.
   32          6
                                   No pseudopotential on this center.
   33          6
                                   No pseudopotential on this center.
   34          6
                                   No pseudopotential on this center.
   35          1
                                   No pseudopotential on this center.
   36          1
                                   No pseudopotential on this center.
   37          1
                                   No pseudopotential on this center.
   38          1
                                   No pseudopotential on this center.
   39          1
                                   No pseudopotential on this center.
   40          1
                                   No pseudopotential on this center.
   41          1
                                   No pseudopotential on this center.
   42          1
                                   No pseudopotential on this center.
 ======================================================================================================
   624 basis functions,   972 primitive gaussians,   646 cartesian basis functions
    76 alpha electrons       76 beta electrons
       nuclear repulsion energy      1662.6307321604 Hartrees.
 NAtoms=   42 NActive=   42 NUniq=   42 SFac= 1.00D+00 NAtFMM=   60 NAOKFM=F Big=F
 Integral buffers will be    131072 words long.
 Raffenetti 2 integral format.
 Two-electron integral symmetry is turned off.
 Nuclear repulsion after empirical dispersion term =     1662.5947696189 Hartrees.
 ------------------------------------------------------------------------------
 Polarizable Continuum Model (PCM)
 =================================
 Model                : PCM.
 Atomic radii         : UFF (Universal Force Field).
 Polarization charges : Total charges.
 Charge compensation  : None.
 Solution method      : On-the-fly selection.
 Cavity type          : Scaled VdW (van der Waals Surface) (Alpha=1.100).
 Cavity algorithm     : GePol (No added spheres)
                        Default sphere list used, NSphG=   42.
                        Lebedev-Laikov grids with approx.  5.0 points / Ang**2.
                        Smoothing algorithm: York/Karplus (Gamma=1.0000).
                        Polarization charges: spherical gaussians, with
                                              point-specific exponents (IZeta= 3).
                        Self-potential: point-specific (ISelfS= 7).
                        Self-field    : sphere-specific E.n sum rule (ISelfD= 2).
 Solvent              : Toluene, Eps=   2.374100 Eps(inf)=   2.238315
 ------------------------------------------------------------------------------
 One-electron integrals computed using PRISM.
   1 Symmetry operations used in ECPInt.
 ECPInt:  NShTT=   27028 NPrTT=   91407 LenC2=   24594 LenP2D=   57173.
 LDataN:  DoStor=T MaxTD1= 4 Len=   56
 Number of processors reduced to  74 by ecpmxn.
 NBasis=   624 RedAO= T EigKep=  1.23D-06  NBF=   624
 NBsUse=   618 1.00D-06 EigRej=  9.07D-07 NBFU=   618
 ExpMin= 3.15D-02 ExpMax= 6.29D+03 ExpMxC= 9.49D+02 IAcc=3 IRadAn=         5 AccDes= 0.00D+00
 Harris functional with IExCor= 4639 and IRadAn=       5 diagonalized for initial guess.
 HarFok:  IExCor= 4639 AccDes= 0.00D+00 IRadAn=         5 IDoV= 1 UseB2=F ITyADJ=14
 ICtDFT=  3500011 ScaDFX=  1.000000  1.000000  1.000000  1.000000
 FoFCou: FMM=F IPFlag=           0 FMFlag=      100000 FMFlg1=           0
         NFxFlg=           0 DoJE=T BraDBF=F KetDBF=T FulRan=T
         wScrn=  0.000000 ICntrl=       500 IOpCl=  0 I1Cent=   200000004 NGrid=           0
         NMat0=    1 NMatS0=      1 NMatT0=    0 NMatD0=    1 NMtDS0=    0 NMtDT0=    0
 Symmetry not used in FoFCou.
 Requested convergence on RMS density matrix=1.00D-08 within 300 cycles.
 Requested convergence on MAX density matrix=1.00D-06.
 Requested convergence on             energy=1.00D-06.
 No special actions if energy rises.
 Inv3:  Mode=1 IEnd=    26267043.
 Iteration    1 A*A^-1 deviation from unit magnitude is 4.22D-15 for   2956.
 Iteration    1 A*A^-1 deviation from orthogonality  is 3.15D-15 for   2944   2288.
 Iteration    1 A^-1*A deviation from unit magnitude is 4.22D-15 for   2956.
 Iteration    1 A^-1*A deviation from orthogonality  is 2.06D-15 for   2955   1425.
 Error on total polarization charges =  0.01094
 SCF Done:  E(RwB97XD) =  -853.710308156     A.U. after   16 cycles
            NFock= 16  Conv=0.98D-08     -V/T= 2.0045

 **********************************************************************

            Population analysis using the SCF Density.

 **********************************************************************

 Alpha  occ. eigenvalues --  -14.44480 -10.32907 -10.30819 -10.30763 -10.29429
 Alpha  occ. eigenvalues --  -10.29120 -10.29071 -10.29065 -10.28922 -10.28917
 Alpha  occ. eigenvalues --  -10.28843 -10.28823 -10.28683 -10.28674 -10.28654
 Alpha  occ. eigenvalues --  -10.28599 -10.27892 -10.27477 -10.27335 -10.27066
 Alpha  occ. eigenvalues --  -10.26510  -6.84278  -1.05085  -0.96113  -0.95635
 Alpha  occ. eigenvalues --   -0.94679  -0.86069  -0.85034  -0.84791  -0.84529
 Alpha  occ. eigenvalues --   -0.84015  -0.83924  -0.81491  -0.75469  -0.71145
 Alpha  occ. eigenvalues --   -0.70323  -0.69750  -0.68949  -0.68730  -0.66833
 Alpha  occ. eigenvalues --   -0.63070  -0.61096  -0.60750  -0.56931  -0.56567
 Alpha  occ. eigenvalues --   -0.55704  -0.55391  -0.54127  -0.53902  -0.53518
 Alpha  occ. eigenvalues --   -0.52973  -0.51838  -0.51016  -0.50755  -0.50481
 Alpha  occ. eigenvalues --   -0.48912  -0.48137  -0.47868  -0.47545  -0.46526
 Alpha  occ. eigenvalues --   -0.45838  -0.45529  -0.45133  -0.43859  -0.42977
 Alpha  occ. eigenvalues --   -0.42493  -0.42155  -0.38948  -0.38673  -0.36541
 Alpha  occ. eigenvalues --   -0.34395  -0.33552  -0.33102  -0.32617  -0.32300
 Alpha  occ. eigenvalues --   -0.26794
 Alpha virt. eigenvalues --   -0.00510   0.03644   0.04445   0.04506   0.04584
 Alpha virt. eigenvalues --    0.05127   0.05191   0.05335   0.05736   0.05766
 Alpha virt. eigenvalues --    0.06153   0.06375   0.06728   0.06980   0.07133
 Alpha virt. eigenvalues --    0.07312   0.07977   0.08320   0.08592   0.09004
 Alpha virt. eigenvalues --    0.09730   0.09894   0.10349   0.10559   0.11444
 Alpha virt. eigenvalues --    0.12241   0.12636   0.12847   0.13461   0.13700
 Alpha virt. eigenvalues --    0.13989   0.14406   0.14508   0.14943   0.15343
 Alpha virt. eigenvalues --    0.16048   0.16223   0.16592   0.16659   0.16832
 Alpha virt. eigenvalues --    0.17094   0.17205   0.17519   0.17687   0.18113
 Alpha virt. eigenvalues --    0.18188   0.18326   0.18516   0.18576   0.18697
 Alpha virt. eigenvalues --    0.19084   0.19131   0.19333   0.19596   0.19632
 Alpha virt. eigenvalues --    0.19939   0.20376   0.20531   0.21034   0.21087
 Alpha virt. eigenvalues --    0.21198   0.21603   0.22112   0.22219   0.22435
 Alpha virt. eigenvalues --    0.22883   0.23120   0.23625   0.23770   0.23948
 Alpha virt. eigenvalues --    0.24171   0.24530   0.24937   0.25184   0.25408
 Alpha virt. eigenvalues --    0.25632   0.25967   0.26179   0.26556   0.26797
 Alpha virt. eigenvalues --    0.27431   0.27580   0.27660   0.28071   0.28551
 Alpha virt. eigenvalues --    0.28742   0.28995   0.29368   0.29801   0.30005
 Alpha virt. eigenvalues --    0.30345   0.30536   0.30718   0.31242   0.31486
 Alpha virt. eigenvalues --    0.31698   0.31852   0.32323   0.32678   0.32884
 Alpha virt. eigenvalues --    0.33056   0.33135   0.33408   0.33743   0.34014
 Alpha virt. eigenvalues --    0.34177   0.34374   0.34926   0.35168   0.35526
 Alpha virt. eigenvalues --    0.35824   0.35970   0.36577   0.36874   0.37185
 Alpha virt. eigenvalues --    0.37773   0.37829   0.37940   0.38258   0.38422
 Alpha virt. eigenvalues --    0.38760   0.39244   0.39474   0.39598   0.40033
 Alpha virt. eigenvalues --    0.40274   0.40545   0.40851   0.41337   0.41402
 Alpha virt. eigenvalues --    0.42064   0.42403   0.42549   0.42870   0.43477
 Alpha virt. eigenvalues --    0.44211   0.44395   0.44791   0.45503   0.45796
 Alpha virt. eigenvalues --    0.46297   0.47295   0.47758   0.47886   0.49172
 Alpha virt. eigenvalues --    0.49259   0.50573   0.51661   0.53910   0.54430
 Alpha virt. eigenvalues --    0.55817   0.57149   0.58241   0.58279   0.59217
 Alpha virt. eigenvalues --    0.60069   0.60623   0.61651   0.62483   0.62788
 Alpha virt. eigenvalues --    0.63484   0.64285   0.64435   0.64550   0.64960
 Alpha virt. eigenvalues --    0.65774   0.66586   0.67006   0.67336   0.67882
 Alpha virt. eigenvalues --    0.68229   0.68878   0.69409   0.69486   0.69994
 Alpha virt. eigenvalues --    0.70814   0.70924   0.71149   0.71688   0.71852
 Alpha virt. eigenvalues --    0.72341   0.72602   0.73340   0.73541   0.74106
 Alpha virt. eigenvalues --    0.74495   0.74790   0.75474   0.76098   0.77236
 Alpha virt. eigenvalues --    0.78362   0.78450   0.78815   0.79020   0.79644
 Alpha virt. eigenvalues --    0.80387   0.81070   0.81456   0.82038   0.82477
 Alpha virt. eigenvalues --    0.82618   0.83048   0.83240   0.84004   0.84339
 Alpha virt. eigenvalues --    0.84527   0.85615   0.86070   0.86105   0.86545
 Alpha virt. eigenvalues --    0.87243   0.87466   0.87831   0.88443   0.89454
 Alpha virt. eigenvalues --    0.89966   0.90530   0.90874   0.91402   0.92577
 Alpha virt. eigenvalues --    0.92731   0.92989   0.93814   0.94434   0.95019
 Alpha virt. eigenvalues --    0.95285   0.95844   0.96307   0.96435   0.97331
 Alpha virt. eigenvalues --    0.98288   0.98686   0.99097   0.99171   1.00338
 Alpha virt. eigenvalues --    1.00785   1.01574   1.01695   1.03070   1.03632
 Alpha virt. eigenvalues --    1.04692   1.05096   1.05872   1.06415   1.07577
 Alpha virt. eigenvalues --    1.08429   1.09512   1.10129   1.10783   1.11164
 Alpha virt. eigenvalues --    1.11640   1.11781   1.12920   1.13970   1.14471
 Alpha virt. eigenvalues --    1.15173   1.15469   1.16195   1.16660   1.16915
 Alpha virt. eigenvalues --    1.17764   1.18893   1.19660   1.20241   1.20961
 Alpha virt. eigenvalues --    1.21641   1.22245   1.22906   1.23357   1.23997
 Alpha virt. eigenvalues --    1.24590   1.25969   1.27016   1.28235   1.29556
 Alpha virt. eigenvalues --    1.30083   1.34538   1.37804   1.38328   1.40402
 Alpha virt. eigenvalues --    1.42152   1.42920   1.44163   1.46825   1.46910
 Alpha virt. eigenvalues --    1.48562   1.52286   1.53687   1.53893   1.55229
 Alpha virt. eigenvalues --    1.55846   1.59047   1.60077   1.61086   1.61820
 Alpha virt. eigenvalues --    1.61989   1.62595   1.63366   1.64081   1.64210
 Alpha virt. eigenvalues --    1.64674   1.64869   1.65334   1.65953   1.66081
 Alpha virt. eigenvalues --    1.66476   1.66865   1.67405   1.68230   1.68430
 Alpha virt. eigenvalues --    1.69197   1.70634   1.71506   1.71573   1.72870
 Alpha virt. eigenvalues --    1.73903   1.75186   1.75380   1.75808   1.76749
 Alpha virt. eigenvalues --    1.77610   1.78048   1.78746   1.80054   1.80572
 Alpha virt. eigenvalues --    1.80821   1.81636   1.83169   1.83872   1.84189
 Alpha virt. eigenvalues --    1.84751   1.85164   1.87067   1.87524   1.89162
 Alpha virt. eigenvalues --    1.89595   1.90967   1.91751   1.92772   1.93223
 Alpha virt. eigenvalues --    1.93921   1.94350   1.95503   1.96552   1.97163
 Alpha virt. eigenvalues --    1.98810   1.99484   2.00410   2.00706   2.01537
 Alpha virt. eigenvalues --    2.02217   2.02840   2.03609   2.04762   2.05068
 Alpha virt. eigenvalues --    2.05286   2.05898   2.06190   2.06578   2.06880
 Alpha virt. eigenvalues --    2.08003   2.08615   2.09165   2.10144   2.10842
 Alpha virt. eigenvalues --    2.11635   2.12351   2.12979   2.15200   2.16044
 Alpha virt. eigenvalues --    2.16551   2.17599   2.18337   2.18561   2.21029
 Alpha virt. eigenvalues --    2.22061   2.22778   2.25003   2.25308   2.26133
 Alpha virt. eigenvalues --    2.27229   2.27829   2.29795   2.31929   2.33783
 Alpha virt. eigenvalues --    2.35070   2.38009   2.40164   2.41703   2.42834
 Alpha virt. eigenvalues --    2.43566   2.44686   2.46325   2.48923   2.52650
 Alpha virt. eigenvalues --    2.53670   2.54283   2.54614   2.55650   2.57208
 Alpha virt. eigenvalues --    2.57438   2.57989   2.58457   2.59025   2.59129
 Alpha virt. eigenvalues --    2.60390   2.61727   2.62115   2.65087   2.67498
 Alpha virt. eigenvalues --    2.69382   2.70525   2.71567   2.72257   2.73313
 Alpha virt. eigenvalues --    2.73837   2.75475   2.75933   2.76795   2.77643
 Alpha virt. eigenvalues --    2.78046   2.78873   2.79608   2.80662   2.81586
 Alpha virt. eigenvalues --    2.82396   2.82867   2.83675   2.83907   2.84528
 Alpha virt. eigenvalues --    2.84935   2.85553   2.86781   2.87186   2.87545
 Alpha virt. eigenvalues --    2.88292   2.88817   2.89598   2.90124   2.91739
 Alpha virt. eigenvalues --    2.91994   2.92596   2.94057   2.94664   2.95218
 Alpha virt. eigenvalues --    2.96044   2.96444   2.97043   2.97905   2.98041
 Alpha virt. eigenvalues --    2.98741   2.99734   3.00484   3.01342   3.02393
 Alpha virt. eigenvalues --    3.03366   3.03959   3.05979   3.06357   3.07190
 Alpha virt. eigenvalues --    3.09161   3.10428   3.10612   3.11888   3.12894
 Alpha virt. eigenvalues --    3.14522   3.15391   3.21395   3.22953   3.25399
 Alpha virt. eigenvalues --    3.26762   3.30223   3.33184   3.34620   3.38227
 Alpha virt. eigenvalues --    3.47775   3.48486   3.49646   3.49889   3.52113
 Alpha virt. eigenvalues --    3.53845   3.54808   3.60017   3.61492   3.62726
 Alpha virt. eigenvalues --    3.63562   3.64778   3.65664   3.68661   3.69342
 Alpha virt. eigenvalues --    3.71052   3.72115   3.73472   3.74254   3.83909
 Alpha virt. eigenvalues --    3.89102   3.91603   3.92456   3.95271   3.99836
 Alpha virt. eigenvalues --    4.07011   4.10517   4.11609   4.11969   4.12748
 Alpha virt. eigenvalues --    4.15861   4.18471   4.22045   4.23922   4.26506
 Alpha virt. eigenvalues --    4.28188   4.28784   4.30152   4.32554   4.34849
 Alpha virt. eigenvalues --    4.94682   4.95892   4.96139   5.00249   5.18442
 Alpha virt. eigenvalues --   14.90472  23.73904  23.80564  23.81799  24.08922
 Alpha virt. eigenvalues --   24.10360  24.11073  24.11243  24.11992  24.12543
 Alpha virt. eigenvalues --   24.14349  24.17159  24.20050  24.21795  24.22461
 Alpha virt. eigenvalues --   24.24004  24.24643  24.24958  24.33093  24.33718
 Alpha virt. eigenvalues --   24.34021  35.75931
          Condensed to atoms (all electrons):
               1          2          3          4          5          6
     1  C   11.367912  -0.329738  -3.887078   0.494477  -0.403996  -0.485016
     2  C   -0.329738   8.889214  -1.026246  -1.919052   0.774951  -0.558316
     3  C   -3.887078  -1.026246   9.926979   0.799545  -0.660318   0.885947
     4  C    0.494477  -1.919052   0.799545   8.935966  -0.821070  -1.251692
     5  C   -0.403996   0.774951  -0.660318  -0.821070   7.544493  -0.331241
     6  C   -0.485016  -0.558316   0.885947  -1.251692  -0.331241   7.987151
     7  H    0.404652  -0.046608   0.035265   0.034408  -0.056968  -0.037902
     8  H   -0.046105   0.490717  -0.113901  -0.054864   0.033613   0.017385
     9  H   -0.020698   0.042177   0.015334  -0.068541   0.459697  -0.081448
    10  H   -0.043383  -0.027399   0.026355   0.006132  -0.046518   0.415998
    11  N    0.130453   0.052530  -0.317142   0.012690  -0.155025  -0.065828
    12  B   -0.723518  -0.095040   0.328511  -0.541191   0.094838   0.299477
    13  C    0.071632  -0.081672   0.044014  -0.029016  -0.041107  -0.066020
    14  H    0.003748  -0.107401   0.054153   0.112953  -0.034094  -0.015757
    15  H    0.000208  -0.009006  -0.010218   0.033662   0.002402   0.009415
    16  H   -0.000117  -0.008118   0.006776  -0.001404  -0.006470  -0.001663
    17  C    0.062061   0.076584  -0.004330   0.057470  -0.073576  -0.322166
    18  H    0.017294   0.001814   0.009573  -0.009109  -0.013391  -0.046848
    19  H   -0.008002  -0.008948  -0.001099   0.012644   0.003610   0.037057
    20  H   -0.000452   0.009422  -0.000479  -0.008434   0.027074  -0.013028
    21  C   -0.112347  -0.368183  -0.022503   0.118291   0.069386   0.060046
    22  C    0.587837   1.597881  -1.310761  -0.664230   0.154800  -0.079575
    23  C   -0.648276  -1.611935   1.352947   0.829910  -0.330446   0.134832
    24  C    0.079737   0.178869  -0.266252  -0.048906   0.015022   0.003261
    25  C    0.041746   0.021502  -0.153279  -0.005401  -0.059853   0.009663
    26  C   -0.046166  -0.051066   0.160300   0.014729   0.002376  -0.004661
    27  H    0.001548   0.000523  -0.005155   0.000529  -0.000378   0.000170
    28  H    0.004706   0.002518  -0.009885  -0.001425  -0.000615   0.000238
    29  C   -0.424207  -0.430113   0.332580   0.549824  -0.405284   0.178240
    30  C    0.615392   1.708870  -0.601401  -1.497536   0.533467  -0.232305
    31  C   -0.243050  -1.362780   0.469259   1.108829  -0.190528   0.076984
    32  C    0.146497   0.327463  -0.316780  -0.207315   0.085478  -0.063814
    33  C    0.035491   0.054027   0.015589  -0.069256   0.001403  -0.012458
    34  C   -0.017618  -0.075174   0.002642   0.078544  -0.013606   0.008513
    35  H   -0.001598   0.001720  -0.001618  -0.001667   0.003158   0.000794
    36  H    0.000648   0.005088  -0.000083  -0.003899   0.000513  -0.000248
    37  H   -0.006453  -0.027950   0.020631   0.022110  -0.001542   0.001262
    38  H   -0.000002  -0.000697   0.001202   0.001095  -0.000469  -0.000050
    39  H    0.062651   0.030036  -0.014427  -0.003045   0.014713  -0.038843
    40  H   -0.006324  -0.028216   0.055449   0.034975  -0.016195   0.016136
    41  H   -0.000604  -0.000374   0.002381   0.000170   0.000077  -0.000094
    42  H   -0.008657  -0.010235  -0.008233  -0.007090   0.001422   0.000502
               7          8          9         10         11         12
     1  C    0.404652  -0.046105  -0.020698  -0.043383   0.130453  -0.723518
     2  C   -0.046608   0.490717   0.042177  -0.027399   0.052530  -0.095040
     3  C    0.035265  -0.113901   0.015334   0.026355  -0.317142   0.328511
     4  C    0.034408  -0.054864  -0.068541   0.006132   0.012690  -0.541191
     5  C   -0.056968   0.033613   0.459697  -0.046518  -0.155025   0.094838
     6  C   -0.037902   0.017385  -0.081448   0.415998  -0.065828   0.299477
     7  H    0.466249  -0.011309  -0.000056  -0.007878   0.002050  -0.005253
     8  H   -0.011309   0.501465   0.000448   0.002213   0.003581  -0.069035
     9  H   -0.000056   0.000448   0.496432  -0.010097  -0.020371   0.012708
    10  H   -0.007878   0.002213  -0.010097   0.469941  -0.007556  -0.006313
    11  N    0.002050   0.003581  -0.020371  -0.007556   7.066689  -0.064901
    12  B   -0.005253  -0.069035   0.012708  -0.006313  -0.064901   7.663990
    13  C    0.001829  -0.005711  -0.003154  -0.001546   0.227034  -0.480219
    14  H    0.000527  -0.001066  -0.000830  -0.000342  -0.042508  -0.224314
    15  H    0.000093  -0.001192  -0.000973  -0.000049  -0.048039  -0.063342
    16  H    0.000052  -0.000162  -0.000069  -0.000094  -0.079481  -0.004248
    17  C   -0.000085  -0.002067   0.007657  -0.000092   0.203860  -0.165668
    18  H    0.000185   0.000051  -0.007197  -0.000712  -0.031786   0.009148
    19  H   -0.000059  -0.000309  -0.006210   0.001060  -0.094006  -0.016980
    20  H   -0.000099   0.000072   0.004004   0.000122  -0.053105   0.003923
    21  C   -0.005901   0.012237  -0.006702   0.001778   0.033706  -0.498551
    22  C   -0.003142   0.055931   0.002805  -0.000253   0.030053  -0.227798
    23  C    0.004260  -0.058464  -0.005276   0.001664  -0.060221   0.445703
    24  C   -0.000841  -0.002776  -0.000116   0.000046   0.000603   0.064099
    25  C    0.002155   0.015405   0.000264   0.000099   0.002322   0.234240
    26  C    0.000493   0.004586   0.000256  -0.000093  -0.002083   0.046166
    27  H    0.000007  -0.000265  -0.000015   0.000002   0.000024   0.000887
    28  H    0.000029  -0.001822  -0.000041   0.000012   0.000095  -0.005758
    29  C    0.002165   0.015197  -0.013342   0.000465  -0.086463   1.387369
    30  C   -0.004496   0.039827   0.008058   0.000384  -0.039612  -0.431821
    31  C    0.003232  -0.051026  -0.005083  -0.000061   0.012938  -0.478660
    32  C    0.000565   0.006002   0.009596  -0.000161   0.068875  -0.374010
    33  C    0.000198  -0.004652  -0.000420  -0.000171  -0.028856  -0.582596
    34  C    0.000122  -0.003715  -0.000060  -0.000020   0.020761   0.068047
    35  H   -0.000050   0.000317   0.000212   0.000094  -0.001594   0.009992
    36  H   -0.000003   0.000086   0.000024   0.000000  -0.000920   0.005448
    37  H   -0.000071  -0.000214  -0.000001   0.000040  -0.001687  -0.064839
    38  H    0.000008  -0.000108  -0.000013  -0.000006   0.000269  -0.008589
    39  H    0.001173  -0.004891   0.000320  -0.001819  -0.003159  -0.147879
    40  H   -0.001130   0.012172  -0.000793   0.000639  -0.001943  -0.107600
    41  H    0.000002   0.000226   0.000003  -0.000001  -0.000007  -0.005581
    42  H   -0.000139  -0.001479   0.000084  -0.000006   0.000865   0.010555
              13         14         15         16         17         18
     1  C    0.071632   0.003748   0.000208  -0.000117   0.062061   0.017294
     2  C   -0.081672  -0.107401  -0.009006  -0.008118   0.076584   0.001814
     3  C    0.044014   0.054153  -0.010218   0.006776  -0.004330   0.009573
     4  C   -0.029016   0.112953   0.033662  -0.001404   0.057470  -0.009109
     5  C   -0.041107  -0.034094   0.002402  -0.006470  -0.073576  -0.013391
     6  C   -0.066020  -0.015757   0.009415  -0.001663  -0.322166  -0.046848
     7  H    0.001829   0.000527   0.000093   0.000052  -0.000085   0.000185
     8  H   -0.005711  -0.001066  -0.001192  -0.000162  -0.002067   0.000051
     9  H   -0.003154  -0.000830  -0.000973  -0.000069   0.007657  -0.007197
    10  H   -0.001546  -0.000342  -0.000049  -0.000094  -0.000092  -0.000712
    11  N    0.227034  -0.042508  -0.048039  -0.079481   0.203860  -0.031786
    12  B   -0.480219  -0.224314  -0.063342  -0.004248  -0.165668   0.009148
    13  C    5.622647   0.444898   0.375302   0.439737  -0.127472   0.004617
    14  H    0.444898   0.605345  -0.022865  -0.034996   0.015857  -0.000180
    15  H    0.375302  -0.022865   0.524725  -0.041124  -0.009051  -0.000872
    16  H    0.439737  -0.034996  -0.041124   0.524829   0.008596  -0.001361
    17  C   -0.127472   0.015857  -0.009051   0.008596   5.432272   0.426709
    18  H    0.004617  -0.000180  -0.000872  -0.001361   0.426709   0.537463
    19  H   -0.006573  -0.005165   0.000349   0.013798   0.419811  -0.048991
    20  H    0.010875   0.008405   0.000671  -0.012054   0.391190  -0.012584
    21  C    0.106272   0.046585   0.008318   0.005628  -0.002896   0.000488
    22  C   -0.004187  -0.074109  -0.007487  -0.002836   0.013386   0.000380
    23  C   -0.045434   0.093651  -0.000549   0.004662  -0.021637  -0.001340
    24  C    0.000828  -0.021042   0.001364  -0.000672  -0.000196   0.000092
    25  C   -0.030450  -0.018941  -0.002158   0.000279  -0.003822  -0.000398
    26  C    0.002507   0.011671  -0.000938   0.000385   0.000545  -0.000046
    27  H   -0.000255  -0.000134   0.000104  -0.000030  -0.000025   0.000004
    28  H    0.000634  -0.000018  -0.000066   0.000063  -0.000002   0.000005
    29  C   -0.415239  -0.121072  -0.010129  -0.007618  -0.003111  -0.000787
    30  C    0.074720  -0.070551   0.003467  -0.005957   0.049932   0.016147
    31  C    0.241516   0.168726   0.028018   0.008003  -0.022967  -0.006772
    32  C    0.163837  -0.022929  -0.006934   0.009390   0.000545  -0.010632
    33  C    0.097185   0.059071   0.032564  -0.002057   0.018579   0.001283
    34  C   -0.058357   0.000256   0.010290  -0.000821   0.005493  -0.002278
    35  H    0.001462  -0.000304  -0.000100   0.000023  -0.002103  -0.000070
    36  H    0.000595  -0.000803  -0.000128  -0.000188   0.000291   0.000001
    37  H    0.010389   0.011983  -0.002256  -0.000030   0.000571   0.000049
    38  H   -0.001268   0.000111   0.000202  -0.000060   0.000415   0.000071
    39  H    0.016672   0.000823   0.002323   0.000479   0.010578  -0.000935
    40  H   -0.000838  -0.004731   0.001466  -0.000502  -0.000919   0.000249
    41  H    0.000024   0.000442  -0.000017   0.000003   0.000014  -0.000000
    42  H   -0.005659  -0.001302  -0.000704   0.000101  -0.000327  -0.000084
              19         20         21         22         23         24
     1  C   -0.008002  -0.000452  -0.112347   0.587837  -0.648276   0.079737
     2  C   -0.008948   0.009422  -0.368183   1.597881  -1.611935   0.178869
     3  C   -0.001099  -0.000479  -0.022503  -1.310761   1.352947  -0.266252
     4  C    0.012644  -0.008434   0.118291  -0.664230   0.829910  -0.048906
     5  C    0.003610   0.027074   0.069386   0.154800  -0.330446   0.015022
     6  C    0.037057  -0.013028   0.060046  -0.079575   0.134832   0.003261
     7  H   -0.000059  -0.000099  -0.005901  -0.003142   0.004260  -0.000841
     8  H   -0.000309   0.000072   0.012237   0.055931  -0.058464  -0.002776
     9  H   -0.006210   0.004004  -0.006702   0.002805  -0.005276  -0.000116
    10  H    0.001060   0.000122   0.001778  -0.000253   0.001664   0.000046
    11  N   -0.094006  -0.053105   0.033706   0.030053  -0.060221   0.000603
    12  B   -0.016980   0.003923  -0.498551  -0.227798   0.445703   0.064099
    13  C   -0.006573   0.010875   0.106272  -0.004187  -0.045434   0.000828
    14  H   -0.005165   0.008405   0.046585  -0.074109   0.093651  -0.021042
    15  H    0.000349   0.000671   0.008318  -0.007487  -0.000549   0.001364
    16  H    0.013798  -0.012054   0.005628  -0.002836   0.004662  -0.000672
    17  C    0.419811   0.391190  -0.002896   0.013386  -0.021637  -0.000196
    18  H   -0.048991  -0.012584   0.000488   0.000380  -0.001340   0.000092
    19  H    0.550808  -0.036282   0.005028  -0.001455   0.001900  -0.000071
    20  H   -0.036282   0.498741  -0.004409   0.002782  -0.002781   0.000030
    21  C    0.005028  -0.004409  10.237311  -1.328364   0.630482  -1.416476
    22  C   -0.001455   0.002782  -1.328364   8.850227  -2.445403   0.158590
    23  C    0.001900  -0.002781   0.630482  -2.445403   8.661778   0.042992
    24  C   -0.000071   0.000030  -1.416476   0.158590   0.042992   7.553699
    25  C    0.000281  -0.000199  -1.845869   0.797455  -0.569675  -0.652125
    26  C   -0.000053   0.000054   0.252099  -0.649552  -0.451501   0.389391
    27  H    0.000003  -0.000006   0.036838  -0.068715   0.023876   0.395383
    28  H    0.000019  -0.000005   0.010283   0.028588  -0.071444  -0.000427
    29  C    0.000405  -0.000132  -1.169762   0.355300  -0.212144   0.016044
    30  C   -0.004240   0.023333  -0.819158   1.684384  -1.287939   0.298095
    31  C    0.003774  -0.011021   1.511952  -2.003812   1.360013  -0.310097
    32  C    0.000132  -0.006281  -0.265129   0.421115  -0.245156   0.089525
    33  C   -0.001537   0.004768  -0.143064   0.078530   0.056918   0.073197
    34  C    0.002513  -0.008492   0.307838  -0.187166   0.058863  -0.058504
    35  H   -0.000323   0.000216  -0.010775   0.003338  -0.000338   0.001777
    36  H   -0.000104   0.000443  -0.023443   0.012578  -0.004581   0.005629
    37  H   -0.000019   0.000116   0.087309  -0.062339   0.027539  -0.003568
    38  H    0.000060  -0.000298   0.003257  -0.001385   0.000296  -0.000645
    39  H    0.000322   0.001256  -0.014414   0.025412  -0.021947   0.001772
    40  H   -0.000009  -0.000100  -0.020734  -0.010487   0.458557  -0.012989
    41  H   -0.000001   0.000001   0.030379  -0.034313  -0.004951  -0.055469
    42  H    0.000014  -0.000045  -0.001022   0.387605   0.020162  -0.048762
              25         26         27         28         29         30
     1  C    0.041746  -0.046166   0.001548   0.004706  -0.424207   0.615392
     2  C    0.021502  -0.051066   0.000523   0.002518  -0.430113   1.708870
     3  C   -0.153279   0.160300  -0.005155  -0.009885   0.332580  -0.601401
     4  C   -0.005401   0.014729   0.000529  -0.001425   0.549824  -1.497536
     5  C   -0.059853   0.002376  -0.000378  -0.000615  -0.405284   0.533467
     6  C    0.009663  -0.004661   0.000170   0.000238   0.178240  -0.232305
     7  H    0.002155   0.000493   0.000007   0.000029   0.002165  -0.004496
     8  H    0.015405   0.004586  -0.000265  -0.001822   0.015197   0.039827
     9  H    0.000264   0.000256  -0.000015  -0.000041  -0.013342   0.008058
    10  H    0.000099  -0.000093   0.000002   0.000012   0.000465   0.000384
    11  N    0.002322  -0.002083   0.000024   0.000095  -0.086463  -0.039612
    12  B    0.234240   0.046166   0.000887  -0.005758   1.387369  -0.431821
    13  C   -0.030450   0.002507  -0.000255   0.000634  -0.415239   0.074720
    14  H   -0.018941   0.011671  -0.000134  -0.000018  -0.121072  -0.070551
    15  H   -0.002158  -0.000938   0.000104  -0.000066  -0.010129   0.003467
    16  H    0.000279   0.000385  -0.000030   0.000063  -0.007618  -0.005957
    17  C   -0.003822   0.000545  -0.000025  -0.000002  -0.003111   0.049932
    18  H   -0.000398  -0.000046   0.000004   0.000005  -0.000787   0.016147
    19  H    0.000281  -0.000053   0.000003   0.000019   0.000405  -0.004240
    20  H   -0.000199   0.000054  -0.000006  -0.000005  -0.000132   0.023333
    21  C   -1.845869   0.252099   0.036838   0.010283  -1.169762  -0.819158
    22  C    0.797455  -0.649552  -0.068715   0.028588   0.355300   1.684384
    23  C   -0.569675  -0.451501   0.023876  -0.071444  -0.212144  -1.287939
    24  C   -0.652125   0.389391   0.395383  -0.000427   0.016044   0.298095
    25  C    8.137051   0.308694  -0.006152   0.416223  -0.014850  -0.067153
    26  C    0.308694   6.070277  -0.060489  -0.055134   0.125627  -0.010766
    27  H   -0.006152  -0.060489   0.458133   0.001701  -0.005687  -0.000947
    28  H    0.416223  -0.055134   0.001701   0.459089  -0.007986   0.002663
    29  C   -0.014850   0.125627  -0.005687  -0.007986  11.966095  -0.884534
    30  C   -0.067153  -0.010766  -0.000947   0.002663  -0.884534  10.593194
    31  C   -0.016477  -0.015110   0.000667  -0.000819  -0.728159  -3.110142
    32  C   -0.002003   0.001885  -0.000872   0.000246  -3.462777  -0.290543
    33  C    0.004168  -0.009547   0.002032   0.000944  -1.571620   0.729553
    34  C    0.001808  -0.007069   0.000455   0.000145   0.606726  -1.191615
    35  H   -0.000185   0.000256  -0.000030  -0.000011   0.000795  -0.045426
    36  H   -0.000099   0.001077   0.000135  -0.000035   0.023903   0.050631
    37  H   -0.017798   0.009710  -0.002206   0.000115  -0.167103  -0.041211
    38  H   -0.000071  -0.000076  -0.000003   0.000002   0.030349  -0.031544
    39  H    0.001055  -0.000765  -0.000017   0.000031  -0.092928   0.453049
    40  H   -0.071625  -0.012785  -0.000322  -0.006112   0.023512  -0.015060
    41  H   -0.076698   0.478304  -0.010987  -0.010328   0.001260   0.000037
    42  H   -0.000568  -0.014294  -0.007159   0.000190  -0.000631  -0.002531
              31         32         33         34         35         36
     1  C   -0.243050   0.146497   0.035491  -0.017618  -0.001598   0.000648
     2  C   -1.362780   0.327463   0.054027  -0.075174   0.001720   0.005088
     3  C    0.469259  -0.316780   0.015589   0.002642  -0.001618  -0.000083
     4  C    1.108829  -0.207315  -0.069256   0.078544  -0.001667  -0.003899
     5  C   -0.190528   0.085478   0.001403  -0.013606   0.003158   0.000513
     6  C    0.076984  -0.063814  -0.012458   0.008513   0.000794  -0.000248
     7  H    0.003232   0.000565   0.000198   0.000122  -0.000050  -0.000003
     8  H   -0.051026   0.006002  -0.004652  -0.003715   0.000317   0.000086
     9  H   -0.005083   0.009596  -0.000420  -0.000060   0.000212   0.000024
    10  H   -0.000061  -0.000161  -0.000171  -0.000020   0.000094   0.000000
    11  N    0.012938   0.068875  -0.028856   0.020761  -0.001594  -0.000920
    12  B   -0.478660  -0.374010  -0.582596   0.068047   0.009992   0.005448
    13  C    0.241516   0.163837   0.097185  -0.058357   0.001462   0.000595
    14  H    0.168726  -0.022929   0.059071   0.000256  -0.000304  -0.000803
    15  H    0.028018  -0.006934   0.032564   0.010290  -0.000100  -0.000128
    16  H    0.008003   0.009390  -0.002057  -0.000821   0.000023  -0.000188
    17  C   -0.022967   0.000545   0.018579   0.005493  -0.002103   0.000291
    18  H   -0.006772  -0.010632   0.001283  -0.002278  -0.000070   0.000001
    19  H    0.003774   0.000132  -0.001537   0.002513  -0.000323  -0.000104
    20  H   -0.011021  -0.006281   0.004768  -0.008492   0.000216   0.000443
    21  C    1.511952  -0.265129  -0.143064   0.307838  -0.010775  -0.023443
    22  C   -2.003812   0.421115   0.078530  -0.187166   0.003338   0.012578
    23  C    1.360013  -0.245156   0.056918   0.058863  -0.000338  -0.004581
    24  C   -0.310097   0.089525   0.073197  -0.058504   0.001777   0.005629
    25  C   -0.016477  -0.002003   0.004168   0.001808  -0.000185  -0.000099
    26  C   -0.015110   0.001885  -0.009547  -0.007069   0.000256   0.001077
    27  H    0.000667  -0.000872   0.002032   0.000455  -0.000030   0.000135
    28  H   -0.000819   0.000246   0.000944   0.000145  -0.000011  -0.000035
    29  C   -0.728159  -3.462777  -1.571620   0.606726   0.000795   0.023903
    30  C   -3.110142  -0.290543   0.729553  -1.191615  -0.045426   0.050631
    31  C    9.982254   0.044143  -0.435021  -0.167944   0.020114  -0.095835
    32  C    0.044143  10.124631  -0.204684   0.064148   0.407975   0.001867
    33  C   -0.435021  -0.204684   7.904866  -0.080468   0.004094   0.420138
    34  C   -0.167944   0.064148  -0.080468   6.758392  -0.073258  -0.083515
    35  H    0.020114   0.407975   0.004094  -0.073258   0.462976   0.002121
    36  H   -0.095835   0.001867   0.420138  -0.083515   0.002121   0.465703
    37  H    0.506549   0.011002  -0.012674   0.010298  -0.000227  -0.009472
    38  H   -0.022460  -0.074062  -0.072010   0.506662  -0.012325  -0.011683
    39  H   -0.012808  -0.016003   0.043138  -0.016516  -0.010991   0.000095
    40  H    0.005867  -0.000836  -0.002423  -0.001991   0.000025   0.000136
    41  H    0.000287  -0.000023  -0.000242  -0.000052   0.000002   0.000011
    42  H    0.001025   0.002982  -0.017134   0.018566  -0.000113  -0.003402
              37         38         39         40         41         42
     1  C   -0.006453  -0.000002   0.062651  -0.006324  -0.000604  -0.008657
     2  C   -0.027950  -0.000697   0.030036  -0.028216  -0.000374  -0.010235
     3  C    0.020631   0.001202  -0.014427   0.055449   0.002381  -0.008233
     4  C    0.022110   0.001095  -0.003045   0.034975   0.000170  -0.007090
     5  C   -0.001542  -0.000469   0.014713  -0.016195   0.000077   0.001422
     6  C    0.001262  -0.000050  -0.038843   0.016136  -0.000094   0.000502
     7  H   -0.000071   0.000008   0.001173  -0.001130   0.000002  -0.000139
     8  H   -0.000214  -0.000108  -0.004891   0.012172   0.000226  -0.001479
     9  H   -0.000001  -0.000013   0.000320  -0.000793   0.000003   0.000084
    10  H    0.000040  -0.000006  -0.001819   0.000639  -0.000001  -0.000006
    11  N   -0.001687   0.000269  -0.003159  -0.001943  -0.000007   0.000865
    12  B   -0.064839  -0.008589  -0.147879  -0.107600  -0.005581   0.010555
    13  C    0.010389  -0.001268   0.016672  -0.000838   0.000024  -0.005659
    14  H    0.011983   0.000111   0.000823  -0.004731   0.000442  -0.001302
    15  H   -0.002256   0.000202   0.002323   0.001466  -0.000017  -0.000704
    16  H   -0.000030  -0.000060   0.000479  -0.000502   0.000003   0.000101
    17  C    0.000571   0.000415   0.010578  -0.000919   0.000014  -0.000327
    18  H    0.000049   0.000071  -0.000935   0.000249  -0.000000  -0.000084
    19  H   -0.000019   0.000060   0.000322  -0.000009  -0.000001   0.000014
    20  H    0.000116  -0.000298   0.001256  -0.000100   0.000001  -0.000045
    21  C    0.087309   0.003257  -0.014414  -0.020734   0.030379  -0.001022
    22  C   -0.062339  -0.001385   0.025412  -0.010487  -0.034313   0.387605
    23  C    0.027539   0.000296  -0.021947   0.458557  -0.004951   0.020162
    24  C   -0.003568  -0.000645   0.001772  -0.012989  -0.055469  -0.048762
    25  C   -0.017798  -0.000071   0.001055  -0.071625  -0.076698  -0.000568
    26  C    0.009710  -0.000076  -0.000765  -0.012785   0.478304  -0.014294
    27  H   -0.002206  -0.000003  -0.000017  -0.000322  -0.010987  -0.007159
    28  H    0.000115   0.000002   0.000031  -0.006112  -0.010328   0.000190
    29  C   -0.167103   0.030349  -0.092928   0.023512   0.001260  -0.000631
    30  C   -0.041211  -0.031544   0.453049  -0.015060   0.000037  -0.002531
    31  C    0.506549  -0.022460  -0.012808   0.005867   0.000287   0.001025
    32  C    0.011002  -0.074062  -0.016003  -0.000836  -0.000023   0.002982
    33  C   -0.012674  -0.072010   0.043138  -0.002423  -0.000242  -0.017134
    34  C    0.010298   0.506662  -0.016516  -0.001991  -0.000052   0.018566
    35  H   -0.000227  -0.012325  -0.010991   0.000025   0.000002  -0.000113
    36  H   -0.009472  -0.011683   0.000095   0.000136   0.000011  -0.003402
    37  H    0.477048   0.001288  -0.002778  -0.000570   0.000302   0.005140
    38  H    0.001288   0.476452   0.001535  -0.000029  -0.000001   0.000371
    39  H   -0.002778   0.001535   0.501617   0.000258  -0.000024  -0.002764
    40  H   -0.000570  -0.000029   0.000258   0.482650   0.000404  -0.005300
    41  H    0.000302  -0.000001  -0.000024   0.000404   0.467851   0.000878
    42  H    0.005140   0.000371  -0.002764  -0.005300   0.000878   0.479331
 Mulliken charges:
               1
     1  C   -0.665283
     2  C   -0.081639
     3  C    0.185757
     4  C   -0.044810
     5  C   -0.159806
     6  C   -0.434096
     7  H    0.222274
     8  H    0.223601
     9  H    0.191430
    10  H    0.227525
    11  N    0.336900
    12  B   -0.291400
    13  C   -0.555049
    14  H    0.186251
    15  H    0.203258
    16  H    0.189328
    17  C   -0.439904
    18  H    0.170748
    19  H    0.186849
    20  H    0.182786
    21  C    0.504191
    22  C   -0.081611
    23  C   -0.109566
    24  C   -0.470113
    25  C   -0.378562
    26  C   -0.489193
    27  H    0.246829
    28  H    0.243399
    29  C    0.619822
    30  C   -0.198717
    31  C   -0.263519
    32  C   -0.416957
    33  C   -0.386846
    34  C   -0.482840
    35  H    0.241643
    36  H    0.241282
    37  H    0.221556
    38  H    0.214212
    39  H    0.237647
    40  H    0.238069
    41  H    0.216708
    42  H    0.217846
 Sum of Mulliken charges =  -0.00000
 Mulliken charges with hydrogens summed into heavy atoms:
               1
     1  C   -0.443009
     2  C    0.141961
     3  C    0.185757
     4  C   -0.044810
     5  C    0.031625
     6  C   -0.206571
    11  N    0.336900
    12  B   -0.291400
    13  C    0.023787
    17  C    0.100480
    21  C    0.504191
    22  C    0.136235
    23  C    0.128503
    24  C   -0.223284
    25  C   -0.135163
    26  C   -0.272485
    29  C    0.619822
    30  C    0.038930
    31  C   -0.041963
    32  C   -0.175314
    33  C   -0.145564
    34  C   -0.268629
 Electronic spatial extent (au):  <R**2>=          13583.6245
 Charge=             -0.0000 electrons
 Dipole moment (field-independent basis, Debye):
    X=              0.2590    Y=              1.8274    Z=              0.0471  Tot=              1.8463
 Quadrupole moment (field-independent basis, Debye-Ang):
   XX=           -120.4807   YY=           -114.7259   ZZ=           -123.3195
   XY=              1.5770   XZ=              2.6266   YZ=             -5.3945
 Traceless Quadrupole moment (field-independent basis, Debye-Ang):
   XX=             -0.9720   YY=              4.7828   ZZ=             -3.8108
   XY=              1.5770   XZ=              2.6266   YZ=             -5.3945
 Octapole moment (field-independent basis, Debye-Ang**2):
  XXX=           -985.8248  YYY=           -836.6656  ZZZ=            -22.7915  XYY=           -331.2079
  XXY=           -297.9919  XXZ=             -5.1990  XZZ=           -317.1678  YZZ=           -295.8995
  YYZ=            -29.1073  XYZ=            -19.9302
 Hexadecapole moment (field-independent basis, Debye-Ang**3):
 XXXX=          -8993.6556 YYYY=          -6181.7737 ZZZZ=          -2680.2243 XXXY=          -2108.6076
 XXXZ=           -139.1202 YYYX=          -2069.2938 YYYZ=            624.2197 ZZZX=           -105.7251
 ZZZY=            559.3256 XXYY=          -2573.9090 XXZZ=          -1953.7308 YYZZ=          -1552.1793
 XXYZ=             40.9373 YYXZ=           -104.4948 ZZXY=           -674.9199
 N-N= 1.662594769619D+03 E-N=-5.306655068589D+03  KE= 8.499218241708D+02
 Breneman (CHELPG) radii used.
 Generate Potential Derived Charges using the Breneman model, NDens= 1.
 Grid spacing= 0.300 Box extension= 2.800
 NStep X,Y,Z=   51     43     50   Total possible points=      109650
 Number of Points to Fit=   23748

 **********************************************************************

            Electrostatic Properties Using The SCF Density.

 **********************************************************************

       Atomic Center    1 is at  -0.675785  0.836720  0.452904
       Atomic Center    2 is at   0.700493  0.948398  0.605175
       Atomic Center    3 is at   1.397672  2.127770  0.308418
       Atomic Center    4 is at   0.646188  3.270428 -0.073310
       Atomic Center    5 is at  -0.744178  3.151200 -0.231030
       Atomic Center    6 is at  -1.387947  1.946609  0.017054
       Atomic Center    7 is at  -1.180458 -0.098767  0.663834
       Atomic Center    8 is at   1.267364  0.078231  0.922598
       Atomic Center    9 is at  -1.336184  4.009111 -0.523215
       Atomic Center   10 is at  -2.464115  1.888039 -0.109398
       Atomic Center   11 is at   1.282345  4.484124 -0.299062
       Atomic Center   12 is at   2.955075  2.017856  0.210838
       Atomic Center   13 is at   2.333158  4.957259  0.582458
       Atomic Center   14 is at   2.620920  4.182828  1.293934
       Atomic Center   15 is at   3.223781  5.250012  0.017555
       Atomic Center   16 is at   1.983848  5.822728  1.163138
       Atomic Center   17 is at   0.580596  5.546617 -0.981759
       Atomic Center   18 is at   0.060172  5.160402 -1.860099
       Atomic Center   19 is at  -0.147256  6.066293 -0.338283
       Atomic Center   20 is at   1.311592  6.281939 -1.325093
       Atomic Center   21 is at   3.748937  1.263308  1.333513
       Atomic Center   22 is at   4.921178  0.541205  1.059358
       Atomic Center   23 is at   3.298577  1.283367  2.663343
       Atomic Center   24 is at   5.607617 -0.133645  2.061385
       Atomic Center   25 is at   3.994329  0.634767  3.675664
       Atomic Center   26 is at   5.149210 -0.080038  3.373745
       Atomic Center   27 is at   6.502266 -0.697937  1.821619
       Atomic Center   28 is at   3.633272  0.677164  4.697482
       Atomic Center   29 is at   3.702464  2.579259 -1.050985
       Atomic Center   30 is at   3.063548  2.623425 -2.299298
       Atomic Center   31 is at   5.014890  3.067770 -0.978693
       Atomic Center   32 is at   3.707966  3.115065 -3.426059
       Atomic Center   33 is at   5.658279  3.587934 -2.096387
       Atomic Center   34 is at   5.007169  3.605268 -3.324666
       Atomic Center   35 is at   3.196808  3.126805 -4.382699
       Atomic Center   36 is at   6.668519  3.973559 -2.011137
       Atomic Center   37 is at   5.536522  3.057080 -0.026734
       Atomic Center   38 is at   5.509405  4.000572 -4.201195
       Atomic Center   39 is at   2.042040  2.265566 -2.382614
       Atomic Center   40 is at   2.386490  1.820624  2.904454
       Atomic Center   41 is at   5.689069 -0.597552  4.159484
       Atomic Center   42 is at   5.292480  0.495917  0.040806
   23748 points will be used for fitting atomic charges
 Fitting point charges to electrostatic potential
 Charges from ESP fit, RMS=   0.00419 RRMS=   0.39905:
 ESP charges:
               1
     1  C   -0.227409
     2  C   -0.008176
     3  C   -0.130056
     4  C    0.281789
     5  C   -0.273004
     6  C   -0.045480
     7  H    0.121887
     8  H    0.020735
     9  H    0.124935
    10  H    0.097527
    11  N   -0.181967
    12  B    0.287763
    13  C    0.041270
    14  H   -0.022910
    15  H    0.006516
    16  H    0.046721
    17  C   -0.212855
    18  H    0.099718
    19  H    0.076638
    20  H    0.097047
    21  C   -0.115560
    22  C    0.036503
    23  C    0.060704
    24  C   -0.146725
    25  C   -0.176962
    26  C   -0.083360
    27  H    0.113794
    28  H    0.115549
    29  C   -0.089848
    30  C   -0.079310
    31  C    0.122555
    32  C   -0.121094
    33  C   -0.197398
    34  C   -0.071266
    35  H    0.104645
    36  H    0.113309
    37  H   -0.013616
    38  H    0.093089
    39  H    0.038574
    40  H    0.008273
    41  H    0.101863
    42  H   -0.014407
 Sum of ESP charges =  -0.00000
 ESP charges with hydrogens summed into heavy atoms:
               1
     1  C   -0.105522
     2  C    0.012559
     3  C   -0.130056
     4  C    0.281789
     5  C   -0.148069
     6  C    0.052046
    11  N   -0.181967
    12  B    0.287763
    13  C    0.071597
    17  C    0.060547
    21  C   -0.115560
    22  C    0.022096
    23  C    0.068978
    24  C   -0.032931
    25  C   -0.061414
    26  C    0.018503
    29  C   -0.089848
    30  C   -0.040736
    31  C    0.108939
    32  C   -0.016448
    33  C   -0.084089
    34  C    0.021823
 Charge=  -0.00000 Dipole=     0.2313     1.7373     0.0632 Tot=     1.7537
 -----------------------------------------------------------------

              Electrostatic Properties (Atomic Units)

 -----------------------------------------------------------------
    Center     Electric         -------- Electric Field --------
               Potential          X             Y             Z
 -----------------------------------------------------------------
    1 Atom    -14.792726
    2 Atom    -14.782537
    3 Atom    -14.801120
    4 Atom    -14.735194
    5 Atom    -14.786036
    6 Atom    -14.779140
    7 Atom     -1.118272
    8 Atom     -1.120992
    9 Atom     -1.108411
   10 Atom     -1.111197
   11 Atom    -18.376966
   12 Atom    -11.474195
   13 Atom    -14.746775
   14 Atom     -1.106144
   15 Atom     -1.120040
   16 Atom     -1.113639
   17 Atom    -14.745477
   18 Atom     -1.109049
   19 Atom     -1.113264
   20 Atom     -1.108086
   21 Atom    -14.793489
   22 Atom    -14.776666
   23 Atom    -14.776381
   24 Atom    -14.776237
   25 Atom    -14.776125
   26 Atom    -14.771114
   27 Atom     -1.106458
   28 Atom     -1.106221
   29 Atom    -14.795957
   30 Atom    -14.781020
   31 Atom    -14.777880
   32 Atom    -14.779612
   33 Atom    -14.777984
   34 Atom    -14.774134
   35 Atom     -1.109581
   36 Atom     -1.107712
   37 Atom     -1.114298
   38 Atom     -1.105513
   39 Atom     -1.119798
   40 Atom     -1.113770
   41 Atom     -1.102959
   42 Atom     -1.114768
 -----------------------------------------------------------------
 Unable to Open any file for archive entry.
 1\1\GINC-IRENE4805\SP\RwB97XD\GenECP\C20H20B1N1\PENASFRA\09-Apr-2024\0
 \\# wb97xd/genecp scrf=(solvent=toluene,pcm) nosymm pop=(chelpg) scfcy
 c=300\\ph_dimethylaniline_chelpg\\0,1\C,0,-0.675785,0.83672,0.452904\C
 ,0,0.700493,0.948398,0.605175\C,0,1.397672,2.12777,0.308418\C,0,0.6461
 88,3.270428,-0.07331\C,0,-0.744178,3.1512,-0.23103\C,0,-1.387947,1.946
 609,0.017054\H,0,-1.180458,-0.098767,0.663834\H,0,1.267364,0.078231,0.
 922598\H,0,-1.336184,4.009111,-0.523215\H,0,-2.464115,1.888039,-0.1093
 98\N,0,1.282345,4.484124,-0.299062\B,0,2.955075,2.017856,0.210838\C,0,
 2.333158,4.957259,0.582458\H,0,2.62092,4.182828,1.293934\H,0,3.223781,
 5.250012,0.017555\H,0,1.983848,5.822728,1.163138\C,0,0.580596,5.546617
 ,-0.981759\H,0,0.060172,5.160402,-1.860099\H,0,-0.147256,6.066293,-0.3
 38283\H,0,1.311592,6.281939,-1.325093\C,0,3.748937,1.263308,1.333513\C
 ,0,4.921178,0.541205,1.059358\C,0,3.298577,1.283367,2.663343\C,0,5.607
 617,-0.133645,2.061385\C,0,3.994329,0.634767,3.675664\C,0,5.14921,-0.0
 80038,3.373745\H,0,6.502266,-0.697937,1.821619\H,0,3.633272,0.677164,4
 .697482\C,0,3.702464,2.579259,-1.050985\C,0,3.063548,2.623425,-2.29929
 8\C,0,5.01489,3.06777,-0.978693\C,0,3.707966,3.115065,-3.426059\C,0,5.
 658279,3.587934,-2.096387\C,0,5.007169,3.605268,-3.324666\H,0,3.196808
 ,3.126805,-4.382699\H,0,6.668519,3.973559,-2.011137\H,0,5.536522,3.057
 08,-0.026734\H,0,5.509405,4.000572,-4.201195\H,0,2.04204,2.265566,-2.3
 82614\H,0,2.38649,1.820624,2.904454\H,0,5.689069,-0.597552,4.159484\H,
 0,5.29248,0.495917,0.040806\\Version=AS64L-G16RevC.02\HF=-853.7103082\
 RMSD=9.847e-09\Dipole=0.1018859,0.7189565,0.0185143\Quadrupole=-0.7226
 758,3.5558752,-2.8331995,1.1724932,1.9528125,-4.0106476\PG=C01 [X(C20H
 20B1N1)]\\@
 The archive entry for this job was punched.


 IT IS A CAPITAL MISTAKE TO THEORIZE BEFORE ONE HAS
 DATA.  INSENSIBLY ONE BEGINS TO TWIST FACTS TO SUIT
 THEORIES RATHER THAN THEORIES TO SUIT FACTS.

                                         -- SHERLOCK HOLMES
 Job cpu time:       0 days  2 hours 30 minutes 58.3 seconds.
 Elapsed time:       0 days  0 hours  1 minutes 29.8 seconds.
 File lengths (MBytes):  RWF=    353 Int=      0 D2E=      0 Chk=     25 Scr=      1
 Normal termination of Gaussian 16 at Tue Apr  9 17:00:30 2024.
