 Entering Gaussian System, Link 0=/ccc/products/gaussian-16-C.02/system/default/g16/g16
 Input=ph_metriazole_chelpg.gjf
 Output=ph_metriazole_chelpg.log
 Initial command:
 /ccc/products/gaussian-16-C.02/system/default/g16/l1.exe "/ccc/scratch/cont003/gen7343/penasfra/flp/b-n_flp/ph_metriazole/Reactant/Gau-1642611.inp" -scrdir="/ccc/scratch/cont003/gen7343/penasfra/flp/b-n_flp/ph_metriazole/Reactant/"
 Entering Link 1 = /ccc/products/gaussian-16-C.02/system/default/g16/l1.exe PID=   1642660.
  
 Copyright (c) 1988-2021, Gaussian, Inc.  All Rights Reserved.
  
 This is part of the Gaussian(R) 16 program.  It is based on
 the Gaussian(R) 09 system (copyright 2009, Gaussian, Inc.),
 the Gaussian(R) 03 system (copyright 2003, Gaussian, Inc.),
 the Gaussian(R) 98 system (copyright 1998, Gaussian, Inc.),
 the Gaussian(R) 94 system (copyright 1995, Gaussian, Inc.),
 the Gaussian 92(TM) system (copyright 1992, Gaussian, Inc.),
 the Gaussian 90(TM) system (copyright 1990, Gaussian, Inc.),
 the Gaussian 88(TM) system (copyright 1988, Gaussian, Inc.),
 the Gaussian 86(TM) system (copyright 1986, Carnegie Mellon
 University), and the Gaussian 82(TM) system (copyright 1983,
 Carnegie Mellon University). Gaussian is a federally registered
 trademark of Gaussian, Inc.
  
 This software contains proprietary and confidential information,
 including trade secrets, belonging to Gaussian, Inc.
  
 This software is provided under written license and may be
 used, copied, transmitted, or stored only in accord with that
 written license.
  
 The following legend is applicable only to US Government
 contracts under FAR:
  
                    RESTRICTED RIGHTS LEGEND
  
 Use, reproduction and disclosure by the US Government is
 subject to restrictions as set forth in subparagraphs (a)
 and (c) of the Commercial Computer Software - Restricted
 Rights clause in FAR 52.227-19.
  
 Gaussian, Inc.
 340 Quinnipiac St., Bldg. 40, Wallingford CT 06492
  
  
 ---------------------------------------------------------------
 Warning -- This program may not be used in any manner that
 competes with the business of Gaussian, Inc. or will provide
 assistance to any competitor of Gaussian, Inc.  The licensee
 of this program is prohibited from giving any competitor of
 Gaussian, Inc. access to this program.  By using this program,
 the user acknowledges that Gaussian, Inc. is engaged in the
 business of creating and licensing software in the field of
 computational chemistry and represents and warrants to the
 licensee that it is not a competitor of Gaussian, Inc. and that
 it will not use this program in any manner prohibited above.
 ---------------------------------------------------------------
  

 Cite this work as:
 Gaussian 16, Revision C.02,
 M. J. Frisch, G. W. Trucks, H. B. Schlegel, G. E. Scuseria, 
 M. A. Robb, J. R. Cheeseman, G. Scalmani, V. Barone, 
 G. A. Petersson, H. Nakatsuji, X. Li, M. Caricato, A. V. Marenich, 
 J. Bloino, B. G. Janesko, R. Gomperts, B. Mennucci, H. P. Hratchian, 
 J. V. Ortiz, A. F. Izmaylov, J. L. Sonnenberg, D. Williams-Young, 
 F. Ding, F. Lipparini, F. Egidi, J. Goings, B. Peng, A. Petrone, 
 T. Henderson, D. Ranasinghe, V. G. Zakrzewski, J. Gao, N. Rega, 
 G. Zheng, W. Liang, M. Hada, M. Ehara, K. Toyota, R. Fukuda, 
 J. Hasegawa, M. Ishida, T. Nakajima, Y. Honda, O. Kitao, H. Nakai, 
 T. Vreven, K. Throssell, J. A. Montgomery, Jr., J. E. Peralta, 
 F. Ogliaro, M. J. Bearpark, J. J. Heyd, E. N. Brothers, K. N. Kudin, 
 V. N. Staroverov, T. A. Keith, R. Kobayashi, J. Normand, 
 K. Raghavachari, A. P. Rendell, J. C. Burant, S. S. Iyengar, 
 J. Tomasi, M. Cossi, J. M. Millam, M. Klene, C. Adamo, R. Cammi, 
 J. W. Ochterski, R. L. Martin, K. Morokuma, O. Farkas, 
 J. B. Foresman, and D. J. Fox, Gaussian, Inc., Wallingford CT, 2019.
 
 ******************************************
 Gaussian 16:  AS64L-G16RevC.02  7-Dec-2021
                 9-Apr-2024 
 ******************************************
 %nprocshared=128
 Will use up to  128 processors via shared memory.
 %mem=30GB
 %chk=ph_metriazole_chelpg.chk
 ----------------------------------------------------------------------
 # wb97xd/genecp scrf=(solvent=toluene,pcm) nosymm pop=(chelpg) scfcyc=
 300
 ----------------------------------------------------------------------
 1/38=1,172=1/1;
 2/12=2,15=1,17=6,18=5,40=1/2;
 3/5=7,11=2,16=1,17=8,25=1,30=1,70=2201,72=13,74=-58/1,2,3;
 4//1;
 5/5=2,7=300,38=5,53=13/2;
 6/7=2,8=2,9=2,10=2,15=8,20=3,28=1/1,2;
 99/5=1,9=1/99;
 --------------------
 ph_metriazole_chelpg
 --------------------
 Symbolic Z-matrix:
 Charge =  0 Multiplicity = 1
 C                     2.78168   1.64849   1.1689 
 H                     3.01756   2.21533   2.0547 
 C                     3.11582   0.36168   0.78106 
 N                     2.02011   2.13838   0.18197 
 N                     1.87757   1.22301  -0.7969 
 N                     2.51917   0.16501  -0.44422 
 B                     3.95966  -0.68578   1.55564 
 C                     1.40452   3.44622   0.06022 
 H                     0.76692   3.42682  -0.82104 
 H                     0.80215   3.65607   0.94387 
 H                     2.16971   4.21392  -0.05902 
 C                     3.90537  -2.20717   1.21085 
 C                     2.79502  -2.78771   0.57494 
 C                     4.98251  -3.05137   1.53084 
 C                     2.75549  -4.14609   0.28897 
 C                     4.95869  -4.40609   1.22598 
 C                     3.83968  -4.95675   0.6099 
 C                     4.86192  -0.16776   2.73255 
 C                     4.93102  -0.86387   3.94942 
 C                     5.62066   1.00733   2.61667 
 C                     5.70237  -0.39879   5.00749 
 C                     6.4195    1.46097   3.65974 
 C                     6.45425   0.76244   4.86189 
 H                     7.01224   2.36101   3.53729 
 H                     5.60241   1.56539   1.68565 
 H                     7.06811   1.11973   5.68154 
 H                     5.72541  -0.94676   5.94314 
 H                     4.36232  -1.78027   4.0714 
 H                     5.85912  -2.63513   2.01634 
 H                     5.80862  -5.03352   1.47113 
 H                     3.81356  -6.01612   0.37776 
 H                     1.95436  -2.16285   0.2989 
 H                     1.88305  -4.57271  -0.19365 
 
                          Input orientation:                          
 ---------------------------------------------------------------------
 Center     Atomic      Atomic             Coordinates (Angstroms)
 Number     Number       Type             X           Y           Z
 ---------------------------------------------------------------------
      1          6           0        2.781677    1.648486    1.168895
      2          1           0        3.017560    2.215326    2.054704
      3          6           0        3.115823    0.361680    0.781062
      4          7           0        2.020111    2.138382    0.181968
      5          7           0        1.877574    1.223012   -0.796902
      6          7           0        2.519174    0.165008   -0.444221
      7          5           0        3.959661   -0.685775    1.555638
      8          6           0        1.404521    3.446220    0.060223
      9          1           0        0.766924    3.426817   -0.821038
     10          1           0        0.802148    3.656071    0.943874
     11          1           0        2.169709    4.213916   -0.059021
     12          6           0        3.905370   -2.207170    1.210845
     13          6           0        2.795015   -2.787710    0.574937
     14          6           0        4.982510   -3.051365    1.530842
     15          6           0        2.755491   -4.146088    0.288972
     16          6           0        4.958693   -4.406089    1.225984
     17          6           0        3.839684   -4.956747    0.609902
     18          6           0        4.861922   -0.167757    2.732551
     19          6           0        4.931022   -0.863874    3.949423
     20          6           0        5.620662    1.007329    2.616665
     21          6           0        5.702371   -0.398787    5.007493
     22          6           0        6.419502    1.460971    3.659737
     23          6           0        6.454253    0.762437    4.861892
     24          1           0        7.012243    2.361012    3.537287
     25          1           0        5.602413    1.565387    1.685648
     26          1           0        7.068111    1.119730    5.681538
     27          1           0        5.725406   -0.946759    5.943143
     28          1           0        4.362324   -1.780272    4.071402
     29          1           0        5.859123   -2.635126    2.016342
     30          1           0        5.808616   -5.033518    1.471134
     31          1           0        3.813560   -6.016118    0.377755
     32          1           0        1.954362   -2.162848    0.298900
     33          1           0        1.883051   -4.572711   -0.193650
 ---------------------------------------------------------------------
                    Distance matrix (angstroms):
                    1          2          3          4          5
     1  C    0.000000
     2  H    1.077778   0.000000
     3  C    1.384896   2.251183   0.000000
     4  N    1.339405   2.123197   2.171674   0.000000
     5  N    2.205173   3.227369   2.182916   1.347741   0.000000
     6  N    2.207206   3.270599   1.376949   2.129644   1.286626
     7  B    2.643103   3.090794   1.552157   3.691163   3.676003
     8  C    2.521420   2.845162   3.600354   1.450591   2.429217
     9  H    3.343879   3.847462   4.180803   2.058291   2.467971
    10  H    2.828351   2.866660   4.028972   2.089812   3.179091
    11  H    2.909246   3.030024   4.054700   2.094826   3.094401
    12  C    4.016283   4.588984   2.721597   4.847330   4.461967
    13  C    4.475801   5.222031   3.172391   5.002128   4.336996
    14  C    5.202237   5.645662   3.961763   6.126071   5.773155
    15  C    5.861061   6.607123   4.548842   6.328254   5.547711
    16  C    6.434325   6.949670   5.130862   7.249506   6.728457
    17  C    6.712746   7.362199   5.370190   7.337222   6.634636
    18  C    3.173512   3.088727   2.671605   4.460901   4.826760
    19  C    4.320066   4.090571   3.851680   5.628558   6.017162
    20  C    3.250685   2.924243   3.171832   4.491213   5.070470
    21  C    5.239906   4.770824   5.013109   6.578902   7.137948
    22  C    4.412848   3.836456   4.517688   5.648752   6.367681
    23  C    5.283098   4.669267   5.287617   6.592157   7.292467
    24  H    4.900476   4.263422   5.174572   6.019062   6.815062
    25  H    2.868883   2.690741   2.906943   3.927119   4.489399
    26  H    6.246363   5.546280   6.341126   7.534270   8.301959
    27  H    6.180152   5.696593   5.930347   7.512552   8.058655
    28  H    4.762287   4.673357   4.119231   5.997458   6.236512
    29  H    5.342113   5.621640   4.246464   6.394476   6.217098
    30  H    7.341858   7.789498   6.069225   8.212848   7.729246
    31  H    7.774113   8.438154   6.428515   8.351686   7.585042
    32  H    3.995949   4.835457   2.820410   4.303321   3.559596
    33  H    6.431745   7.240142   5.178610   6.722994   5.827036
                    6          7          8          9         10
     6  N    0.000000
     7  B    2.607349   0.000000
     8  C    3.501895   5.083148   0.000000
     9  H    3.721796   5.723248   1.087900   0.000000
    10  H    4.130679   5.403311   1.089830   1.780088   0.000000
    11  H    4.082176   5.460588   1.090454   1.779888   1.785277
    12  C    3.207493   1.560920   6.288004   6.761671   6.639191
    13  C    3.135812   2.595439   6.407830   6.684478   6.754994
    14  C    4.507100   2.577373   7.561966   8.078945   7.925254
    15  C    4.379380   3.876627   7.714959   7.907933   8.069581
    16  C    5.443874   3.866196   8.697695   9.116778   9.074959
    17  C    5.393264   4.376073   8.765958   9.042875   9.138862
    18  C    3.961197   1.570841   5.670607   6.505226   5.856858
    19  C    5.116612   2.589492   6.792569   7.648989   6.819885
    20  C    4.438215   2.598327   5.500857   6.421098   5.747359
    21  C    6.338122   3.877461   7.598097   8.541994   7.547652
    22  C    5.808145   3.884143   6.484424   7.476198   6.614306
    23  C    6.632994   4.387667   7.467162   8.469966   7.461251
    24  H    6.392379   4.746378   6.686867   7.689925   6.853339
    25  H    4.000471   2.789851   4.878713   5.755897   5.288075
    26  H    7.689554   5.472235   8.311919   9.344041   8.254743
    27  H    7.232867   4.736683   8.519217   9.458798   8.391496
    28  H    5.250921   2.772928   7.221799   7.998540   7.211804
    29  H    5.005035   2.760466   7.787981   8.410016   8.142625
    30  H    6.443112   4.725320   9.658814  10.111873  10.042494
    31  H    6.368469   5.460889   9.769347   9.994404  10.145952
    32  H    2.508018   2.789688   5.641005   5.823111   5.966859
    33  H    4.786796   4.741370   8.037207   8.101346   8.377062
                   11         12         13         14         15
    11  H    0.000000
    12  C    6.771663   0.000000
    13  C    7.058022   1.405096   0.000000
    14  C    7.951341   1.405451   2.401750   0.000000
    15  C    8.387724   2.435462   1.388715   2.774937   0.000000
    16  C    9.150637   2.438230   2.779301   1.388806   2.408255
    17  C    9.345445   2.815248   2.407754   2.405132   1.391272
    18  C    5.851491   2.718416   3.973859   3.126314   5.122035
    19  C    7.033948   3.218107   4.432925   3.261488   5.376315
    20  C    5.417617   3.905325   5.153179   4.249617   6.339169
    21  C    7.708845   4.573182   5.814398   4.431870   6.707519
    22  C    6.282405   5.076730   6.379983   5.192140   7.498409
    23  C    7.381423   5.352150   6.661197   5.273235   7.660682
    24  H    6.310057   5.994437   7.284907   6.118779   8.426971
    25  H    4.673546   4.163842   5.297605   4.660756   6.532734
    26  H    8.156123   6.407674   7.720415   6.243080   8.683738
    27  H    8.677645   5.224539   6.387012   4.944660   7.143231
    28  H    7.602516   2.928111   3.961901   2.907706   4.741917
    29  H    8.051601   2.156182   3.389644   1.085088   3.859967
    30  H   10.054753   3.417358   3.863756   2.148243   3.392140
    31  H   10.370468   3.900071   3.391008   3.389073   2.150443
    32  H    6.390430   2.154075   1.083211   3.387746   2.138959
    33  H    8.792333   3.414405   2.146773   3.859406   1.084473
                   16         17         18         19         20
    16  C    0.000000
    17  C    1.391029   0.000000
    18  C    4.499174   5.337137   0.000000
    19  C    4.468240   5.393981   1.403614   0.000000
    20  C    5.628258   6.539815   1.403547   2.398593   0.000000
    21  C    5.559796   6.601773   2.436204   1.389531   2.774869
    22  C    6.517631   7.559369   2.436901   2.775679   1.389941
    23  C    6.493858   7.591077   2.816890   2.407845   2.407466
    24  H    7.439949   8.496135   3.415575   3.860211   2.148604
    25  H    6.023636   6.841248   2.155950   3.387736   1.085612
    26  H    7.405152   8.547971   3.901463   3.391468   3.391340
    27  H    5.899695   6.933932   3.414725   2.147751   3.859389
    28  H    3.917521   4.727063   2.154605   1.085395   3.386797
    29  H    2.138165   3.383213   2.755953   2.781278   3.699288
    30  H    1.084497   2.150420   5.114981   4.929302   6.151374
    31  H    2.150120   1.084823   6.391201   6.367979   7.589937
    32  H    3.862333   3.384824   4.284501   4.886119   5.372505
    33  H    3.391563   2.149789   6.069592   6.341187   7.280416
                   21         22         23         24         25
    21  C    0.000000
    22  C    2.406122   0.000000
    23  C    1.391031   1.390803   0.000000
    24  H    3.390245   1.084624   2.149738   0.000000
    25  H    3.860392   2.139057   3.385098   2.459514   0.000000
    26  H    2.150692   2.150539   1.084573   2.478248   4.279488
    27  H    1.084548   3.390114   2.149808   4.287825   4.944924
    28  H    2.140209   3.860972   3.386209   4.945461   4.292211
    29  H    3.738017   4.448908   4.471551   5.348304   4.221323
    30  H    5.830768   6.880520   6.745901   7.771537   6.605610
    31  H    7.520405   8.571418   8.545733   9.507393   7.898721
    32  H    6.271390   6.660688   7.044658   7.518951   5.397322
    33  H    7.685098   8.475453   8.655530   9.397075   7.419007
                   26         27         28         29         30
    26  H    0.000000
    27  H    2.478239   0.000000
    28  H    4.280635   2.460925   0.000000
    29  H    5.384632   4.276474   2.682248   0.000000
    30  H    7.561501   6.058662   4.408715   2.460099   0.000000
    31  H    9.467975   7.767052   5.646819   4.277897   2.478150
    32  H    8.117792   6.896167   4.491817   4.291831   4.946732
    33  H    9.685379   8.097620   5.668790   4.944436   4.288812
                   31         32         33
    31  H    0.000000
    32  H    4.279080   0.000000
    33  H    2.477255   2.460717   0.000000
 Symmetry turned off by external request.
 Stoichiometry    C15H14BN3
 Framework group  C1[X(C15H14BN3)]
 Deg. of freedom    93
 Full point group                 C1      NOp   1
 Rotational constants (GHZ):           0.3923050           0.3336414           0.1889673
 General basis read from cards:  (5D, 7F)
 ======================================================================================================
                                       Pseudopotential Parameters
 ======================================================================================================
  Center     Atomic      Valence      Angular      Power
  Number     Number     Electrons     Momentum     of R      Exponent        Coefficient   SO-Coeffient
 ======================================================================================================
    1          6
                                   No pseudopotential on this center.
    2          1
                                   No pseudopotential on this center.
    3          6
                                   No pseudopotential on this center.
    4          7
                                   No pseudopotential on this center.
    5          7
                                   No pseudopotential on this center.
    6          7
                                   No pseudopotential on this center.
    7          5
                                   No pseudopotential on this center.
    8          6
                                   No pseudopotential on this center.
    9          1
                                   No pseudopotential on this center.
   10          1
                                   No pseudopotential on this center.
   11          1
                                   No pseudopotential on this center.
   12          6
                                   No pseudopotential on this center.
   13          6
                                   No pseudopotential on this center.
   14          6
                                   No pseudopotential on this center.
   15          6
                                   No pseudopotential on this center.
   16          6
                                   No pseudopotential on this center.
   17          6
                                   No pseudopotential on this center.
   18          6
                                   No pseudopotential on this center.
   19          6
                                   No pseudopotential on this center.
   20          6
                                   No pseudopotential on this center.
   21          6
                                   No pseudopotential on this center.
   22          6
                                   No pseudopotential on this center.
   23          6
                                   No pseudopotential on this center.
   24          1
                                   No pseudopotential on this center.
   25          1
                                   No pseudopotential on this center.
   26          1
                                   No pseudopotential on this center.
   27          1
                                   No pseudopotential on this center.
   28          1
                                   No pseudopotential on this center.
   29          1
                                   No pseudopotential on this center.
   30          1
                                   No pseudopotential on this center.
   31          1
                                   No pseudopotential on this center.
   32          1
                                   No pseudopotential on this center.
   33          1
                                   No pseudopotential on this center.
 ======================================================================================================
   516 basis functions,   810 primitive gaussians,   535 cartesian basis functions
    65 alpha electrons       65 beta electrons
       nuclear repulsion energy      1252.2008818851 Hartrees.
 NAtoms=   33 NActive=   33 NUniq=   33 SFac= 1.00D+00 NAtFMM=   60 NAOKFM=F Big=F
 Integral buffers will be    131072 words long.
 Raffenetti 2 integral format.
 Two-electron integral symmetry is turned off.
 Nuclear repulsion after empirical dispersion term =     1252.1784716469 Hartrees.
 ------------------------------------------------------------------------------
 Polarizable Continuum Model (PCM)
 =================================
 Model                : PCM.
 Atomic radii         : UFF (Universal Force Field).
 Polarization charges : Total charges.
 Charge compensation  : None.
 Solution method      : On-the-fly selection.
 Cavity type          : Scaled VdW (van der Waals Surface) (Alpha=1.100).
 Cavity algorithm     : GePol (No added spheres)
                        Default sphere list used, NSphG=   33.
                        Lebedev-Laikov grids with approx.  5.0 points / Ang**2.
                        Smoothing algorithm: York/Karplus (Gamma=1.0000).
                        Polarization charges: spherical gaussians, with
                                              point-specific exponents (IZeta= 3).
                        Self-potential: point-specific (ISelfS= 7).
                        Self-field    : sphere-specific E.n sum rule (ISelfD= 2).
 Solvent              : Toluene, Eps=   2.374100 Eps(inf)=   2.238315
 ------------------------------------------------------------------------------
 One-electron integrals computed using PRISM.
   1 Symmetry operations used in ECPInt.
 ECPInt:  NShTT=   17020 NPrTT=   60069 LenC2=   15181 LenP2D=   36774.
 LDataN:  DoStor=T MaxTD1= 4 Len=   56
 Number of processors reduced to  91 by ecpmxn.
 NBasis=   516 RedAO= T EigKep=  1.92D-06  NBF=   516
 NBsUse=   513 1.00D-06 EigRej=  8.43D-07 NBFU=   513
 ExpMin= 3.15D-02 ExpMax= 6.29D+03 ExpMxC= 9.49D+02 IAcc=3 IRadAn=         5 AccDes= 0.00D+00
 Harris functional with IExCor= 4639 and IRadAn=       5 diagonalized for initial guess.
 HarFok:  IExCor= 4639 AccDes= 0.00D+00 IRadAn=         5 IDoV= 1 UseB2=F ITyADJ=14
 ICtDFT=  3500011 ScaDFX=  1.000000  1.000000  1.000000  1.000000
 FoFCou: FMM=F IPFlag=           0 FMFlag=      100000 FMFlg1=           0
         NFxFlg=           0 DoJE=T BraDBF=F KetDBF=T FulRan=T
         wScrn=  0.000000 ICntrl=       500 IOpCl=  0 I1Cent=   200000004 NGrid=           0
         NMat0=    1 NMatS0=      1 NMatT0=    0 NMatD0=    1 NMtDS0=    0 NMtDT0=    0
 Symmetry not used in FoFCou.
 Requested convergence on RMS density matrix=1.00D-08 within 300 cycles.
 Requested convergence on MAX density matrix=1.00D-06.
 Requested convergence on             energy=1.00D-06.
 No special actions if energy rises.
 Inv3:  Mode=1 IEnd=    19431075.
 Iteration    1 A*A^-1 deviation from unit magnitude is 3.44D-15 for   2545.
 Iteration    1 A*A^-1 deviation from orthogonality  is 1.61D-15 for   2018    169.
 Iteration    1 A^-1*A deviation from unit magnitude is 3.44D-15 for   2525.
 Iteration    1 A^-1*A deviation from orthogonality  is 3.78D-15 for   2511   2498.
 Error on total polarization charges =  0.01101
 SCF Done:  E(RwB97XD) =  -769.050643129     A.U. after   16 cycles
            NFock= 16  Conv=0.53D-08     -V/T= 2.0042

 **********************************************************************

            Population analysis using the SCF Density.

 **********************************************************************

 Alpha  occ. eigenvalues --  -14.53513 -14.49717 -14.45983 -10.33900 -10.33810
 Alpha  occ. eigenvalues --  -10.29592 -10.29568 -10.29441 -10.29322 -10.29269
 Alpha  occ. eigenvalues --  -10.29235 -10.29198 -10.28922 -10.28669 -10.28647
 Alpha  occ. eigenvalues --  -10.28527 -10.27845 -10.27239  -6.84898  -1.21668
 Alpha  occ. eigenvalues --   -1.03092  -0.96387  -0.95677  -0.91348  -0.85740
 Alpha  occ. eigenvalues --   -0.85199  -0.84775  -0.84302  -0.83956  -0.73857
 Alpha  occ. eigenvalues --   -0.70927  -0.70599  -0.69624  -0.69046  -0.68700
 Alpha  occ. eigenvalues --   -0.64071  -0.61760  -0.60810  -0.59572  -0.57023
 Alpha  occ. eigenvalues --   -0.54619  -0.54398  -0.53993  -0.53636  -0.52903
 Alpha  occ. eigenvalues --   -0.51599  -0.51392  -0.51036  -0.50440  -0.48508
 Alpha  occ. eigenvalues --   -0.47781  -0.46258  -0.45797  -0.43687  -0.42833
 Alpha  occ. eigenvalues --   -0.42376  -0.40121  -0.39399  -0.38239  -0.36193
 Alpha  occ. eigenvalues --   -0.35951  -0.33893  -0.33352  -0.32950  -0.32654
 Alpha virt. eigenvalues --   -0.00933   0.03585   0.04237   0.04463   0.04648
 Alpha virt. eigenvalues --    0.04820   0.05292   0.05770   0.06009   0.06181
 Alpha virt. eigenvalues --    0.06453   0.06717   0.07327   0.07592   0.08043
 Alpha virt. eigenvalues --    0.08254   0.08905   0.09038   0.09149   0.09890
 Alpha virt. eigenvalues --    0.10805   0.11297   0.11677   0.12590   0.13877
 Alpha virt. eigenvalues --    0.13947   0.14000   0.14743   0.15278   0.15590
 Alpha virt. eigenvalues --    0.15805   0.15999   0.16515   0.16547   0.17098
 Alpha virt. eigenvalues --    0.17230   0.17398   0.17600   0.17775   0.17893
 Alpha virt. eigenvalues --    0.18182   0.18317   0.18521   0.18751   0.19003
 Alpha virt. eigenvalues --    0.19170   0.19380   0.19743   0.20492   0.20727
 Alpha virt. eigenvalues --    0.20805   0.21436   0.21620   0.21925   0.22116
 Alpha virt. eigenvalues --    0.22632   0.22831   0.23232   0.23508   0.24111
 Alpha virt. eigenvalues --    0.24149   0.24724   0.25015   0.25211   0.25541
 Alpha virt. eigenvalues --    0.25882   0.26031   0.26458   0.26864   0.26977
 Alpha virt. eigenvalues --    0.27506   0.27725   0.28247   0.28524   0.29201
 Alpha virt. eigenvalues --    0.29571   0.29868   0.30455   0.30712   0.31026
 Alpha virt. eigenvalues --    0.31192   0.31524   0.31916   0.32265   0.32706
 Alpha virt. eigenvalues --    0.33007   0.33437   0.33679   0.33836   0.34448
 Alpha virt. eigenvalues --    0.34515   0.34651   0.35091   0.35547   0.35868
 Alpha virt. eigenvalues --    0.36077   0.36708   0.36876   0.37304   0.37703
 Alpha virt. eigenvalues --    0.38124   0.38347   0.38663   0.39074   0.39703
 Alpha virt. eigenvalues --    0.39832   0.40154   0.40553   0.41079   0.41401
 Alpha virt. eigenvalues --    0.42138   0.42499   0.42743   0.43674   0.44045
 Alpha virt. eigenvalues --    0.44580   0.45015   0.45677   0.46126   0.46990
 Alpha virt. eigenvalues --    0.48056   0.49253   0.51583   0.52413   0.53764
 Alpha virt. eigenvalues --    0.55054   0.56011   0.56282   0.57001   0.57971
 Alpha virt. eigenvalues --    0.58969   0.59176   0.60802   0.61878   0.62005
 Alpha virt. eigenvalues --    0.62956   0.63207   0.63624   0.65102   0.65373
 Alpha virt. eigenvalues --    0.65759   0.66029   0.66844   0.67393   0.67483
 Alpha virt. eigenvalues --    0.67790   0.68078   0.69066   0.69427   0.69866
 Alpha virt. eigenvalues --    0.70678   0.71072   0.71694   0.72211   0.72227
 Alpha virt. eigenvalues --    0.73295   0.73624   0.74383   0.75093   0.76501
 Alpha virt. eigenvalues --    0.77530   0.77922   0.78357   0.79506   0.80409
 Alpha virt. eigenvalues --    0.80872   0.81332   0.81532   0.81969   0.82311
 Alpha virt. eigenvalues --    0.83008   0.84019   0.84584   0.85203   0.86386
 Alpha virt. eigenvalues --    0.86985   0.87236   0.87902   0.89282   0.89568
 Alpha virt. eigenvalues --    0.91058   0.91514   0.91713   0.92308   0.93388
 Alpha virt. eigenvalues --    0.93596   0.94059   0.94237   0.95143   0.96602
 Alpha virt. eigenvalues --    0.96992   0.97285   0.97959   0.98437   0.98778
 Alpha virt. eigenvalues --    0.99713   0.99890   1.01180   1.02024   1.02920
 Alpha virt. eigenvalues --    1.03769   1.04449   1.05482   1.05802   1.07072
 Alpha virt. eigenvalues --    1.09167   1.09906   1.10400   1.11074   1.11553
 Alpha virt. eigenvalues --    1.11942   1.12950   1.13969   1.14113   1.15449
 Alpha virt. eigenvalues --    1.16248   1.16542   1.16997   1.17948   1.19338
 Alpha virt. eigenvalues --    1.19728   1.20530   1.21141   1.22554   1.23567
 Alpha virt. eigenvalues --    1.25047   1.25822   1.27019   1.27830   1.31954
 Alpha virt. eigenvalues --    1.35681   1.38398   1.39719   1.41591   1.42605
 Alpha virt. eigenvalues --    1.42796   1.44310   1.47421   1.49853   1.50403
 Alpha virt. eigenvalues --    1.51181   1.52716   1.54574   1.57540   1.58447
 Alpha virt. eigenvalues --    1.59798   1.61325   1.62168   1.62788   1.63094
 Alpha virt. eigenvalues --    1.63424   1.64177   1.64802   1.64871   1.65819
 Alpha virt. eigenvalues --    1.65955   1.66701   1.67860   1.68485   1.68806
 Alpha virt. eigenvalues --    1.69950   1.70409   1.71983   1.74040   1.74877
 Alpha virt. eigenvalues --    1.76054   1.76603   1.77069   1.77233   1.80649
 Alpha virt. eigenvalues --    1.82964   1.83344   1.83591   1.83893   1.84734
 Alpha virt. eigenvalues --    1.85795   1.87351   1.87549   1.89486   1.89901
 Alpha virt. eigenvalues --    1.90539   1.92427   1.93731   1.94852   1.95651
 Alpha virt. eigenvalues --    1.97758   1.98673   2.00170   2.01516   2.02460
 Alpha virt. eigenvalues --    2.03114   2.03720   2.03801   2.04502   2.05235
 Alpha virt. eigenvalues --    2.05500   2.06757   2.07580   2.08676   2.09691
 Alpha virt. eigenvalues --    2.11715   2.11952   2.14266   2.15645   2.16182
 Alpha virt. eigenvalues --    2.17678   2.17721   2.19208   2.20804   2.22486
 Alpha virt. eigenvalues --    2.23155   2.24220   2.25098   2.26729   2.28499
 Alpha virt. eigenvalues --    2.30001   2.36757   2.38543   2.40734   2.41801
 Alpha virt. eigenvalues --    2.42747   2.43649   2.44858   2.48673   2.51631
 Alpha virt. eigenvalues --    2.52219   2.53168   2.53760   2.54414   2.55852
 Alpha virt. eigenvalues --    2.56742   2.56819   2.58646   2.58705   2.60775
 Alpha virt. eigenvalues --    2.61839   2.66436   2.67467   2.69462   2.70657
 Alpha virt. eigenvalues --    2.72786   2.74081   2.74889   2.75299   2.76182
 Alpha virt. eigenvalues --    2.77584   2.77993   2.79656   2.80747   2.80899
 Alpha virt. eigenvalues --    2.81635   2.82094   2.82919   2.83174   2.84470
 Alpha virt. eigenvalues --    2.84799   2.85119   2.85939   2.87407   2.88900
 Alpha virt. eigenvalues --    2.89711   2.91111   2.91590   2.93419   2.93942
 Alpha virt. eigenvalues --    2.94658   2.94928   2.95633   2.96303   2.97425
 Alpha virt. eigenvalues --    2.98093   3.00385   3.02805   3.03465   3.04615
 Alpha virt. eigenvalues --    3.05728   3.06205   3.06838   3.07857   3.09119
 Alpha virt. eigenvalues --    3.10127   3.13793   3.18919   3.21142   3.22400
 Alpha virt. eigenvalues --    3.25749   3.28973   3.30217   3.34494   3.46518
 Alpha virt. eigenvalues --    3.47515   3.49033   3.49483   3.53042   3.55158
 Alpha virt. eigenvalues --    3.60078   3.61423   3.62316   3.63605   3.67877
 Alpha virt. eigenvalues --    3.68134   3.72366   3.72799   3.74092   3.81185
 Alpha virt. eigenvalues --    3.81514   3.92268   3.92900   3.98936   4.05884
 Alpha virt. eigenvalues --    4.09856   4.11325   4.11746   4.14265   4.15231
 Alpha virt. eigenvalues --    4.18209   4.20207   4.21589   4.26262   4.26645
 Alpha virt. eigenvalues --    4.28399   4.30398   4.35182   4.74478   4.94142
 Alpha virt. eigenvalues --    4.95141   4.95553   5.11253   5.75688  14.87014
 Alpha virt. eigenvalues --   23.73150  23.78880  23.94944  24.05917  24.10300
 Alpha virt. eigenvalues --   24.10691  24.11823  24.13373  24.20623  24.21692
 Alpha virt. eigenvalues --   24.23805  24.24588  24.25025  24.32862  24.33770
 Alpha virt. eigenvalues --   35.56971  35.64350  35.79094
          Condensed to atoms (all electrons):
               1          2          3          4          5          6
     1  C   10.278239   0.360313  -3.792846   0.131539  -0.587960   0.406358
     2  H    0.360313   0.451023   0.027776  -0.099631   0.060541  -0.025423
     3  C   -3.792846   0.027776  10.327708  -0.393461   0.889585  -0.392227
     4  N    0.131539  -0.099631  -0.393461   7.183123  -0.356070   0.251502
     5  N   -0.587960   0.060541   0.889585  -0.356070   7.319898  -0.336129
     6  N    0.406358  -0.025423  -0.392227   0.251502  -0.336129   7.254476
     7  B   -0.324232  -0.011373   0.501497   0.058899  -0.059123  -0.058588
     8  C   -0.030853   0.001592  -0.113745   0.066700   0.026988  -0.015973
     9  H    0.001948   0.001009  -0.003549  -0.101698   0.070205   0.001265
    10  H    0.008617  -0.014200   0.004592  -0.019163  -0.033440   0.009142
    11  H    0.003781  -0.003688  -0.004195  -0.022015  -0.024757  -0.001586
    12  C    0.084006  -0.001057  -0.108568  -0.017478  -0.102363   0.202737
    13  C   -0.471382   0.001365   0.381132  -0.009426   0.074921  -0.074731
    14  C    0.289317  -0.002593  -0.235842   0.003978  -0.023936   0.015475
    15  C   -0.072657   0.005944  -0.044080  -0.008360   0.063173  -0.145530
    16  C    0.080619  -0.003034  -0.011217   0.000341  -0.007321   0.015499
    17  C   -0.031043   0.000842   0.056757  -0.001229   0.004491  -0.025810
    18  C   -0.411975  -0.038800   0.121464   0.067440  -0.072321   0.065387
    19  C   -0.034108   0.001919   0.055088  -0.010307   0.036607  -0.020148
    20  C    0.071016   0.002931  -0.034114  -0.005691  -0.027461  -0.002712
    21  C   -0.007738   0.027673   0.076588  -0.003431   0.013258  -0.015931
    22  C    0.550102  -0.001845  -0.592431  -0.005636  -0.018678   0.028213
    23  C   -0.051741   0.012106   0.063785  -0.003260   0.000806   0.000320
    24  H    0.000577  -0.002688  -0.001896   0.000393  -0.000463   0.000380
    25  H    0.031082  -0.011428   0.000773   0.011180  -0.010989   0.005398
    26  H   -0.000250  -0.000752   0.000269   0.000021  -0.000069   0.000100
    27  H    0.001254   0.000233  -0.001361   0.000053   0.000046  -0.000209
    28  H   -0.008280  -0.002931   0.004765   0.000908  -0.000694   0.002941
    29  H   -0.015041  -0.001255  -0.003082   0.001397  -0.001231   0.003609
    30  H    0.001563  -0.000010  -0.001777  -0.000026  -0.000005   0.000189
    31  H   -0.000072   0.000023   0.000978  -0.000018   0.000138  -0.000275
    32  H    0.030776  -0.000297   0.001133   0.001177  -0.007065  -0.005303
    33  H   -0.001688   0.000036  -0.001598  -0.000161   0.001041  -0.000182
               7          8          9         10         11         12
     1  C   -0.324232  -0.030853   0.001948   0.008617   0.003781   0.084006
     2  H   -0.011373   0.001592   0.001009  -0.014200  -0.003688  -0.001057
     3  C    0.501497  -0.113745  -0.003549   0.004592  -0.004195  -0.108568
     4  N    0.058899   0.066700  -0.101698  -0.019163  -0.022015  -0.017478
     5  N   -0.059123   0.026988   0.070205  -0.033440  -0.024757  -0.102363
     6  N   -0.058588  -0.015973   0.001265   0.009142  -0.001586   0.202737
     7  B    3.965116   0.001286  -0.000887  -0.000540   0.002740   0.226617
     8  C    0.001286   5.229930   0.408707   0.398756   0.396646  -0.000954
     9  H   -0.000887   0.408707   0.454576  -0.022604  -0.019365   0.001111
    10  H   -0.000540   0.398756  -0.022604   0.519240  -0.049261  -0.001458
    11  H    0.002740   0.396646  -0.019365  -0.049261   0.517672   0.001434
    12  C    0.226617  -0.000954   0.001111  -0.001458   0.001434   8.687840
    13  C   -0.071566  -0.000186  -0.000794   0.000164  -0.000317   0.319353
    14  C    0.042052   0.002234   0.000423  -0.000254   0.000271  -0.302809
    15  C    0.147155  -0.001222  -0.000541  -0.000176  -0.000140  -0.902340
    16  C   -0.154844   0.000856   0.000193   0.000097  -0.000013  -1.285223
    17  C    0.084471  -0.000413  -0.000095  -0.000032  -0.000006   0.026013
    18  C    0.548869  -0.010218  -0.000753   0.005732  -0.004540  -1.183534
    19  C   -0.063817   0.002101   0.000099   0.000198  -0.000438   0.538615
    20  C   -0.213421  -0.001522  -0.000650  -0.002446   0.002960  -0.381493
    21  C   -0.022356   0.001466   0.000055  -0.000092  -0.000566  -0.236823
    22  C   -0.037803   0.004954   0.000538  -0.001753   0.002415   0.082472
    23  C    0.074377  -0.001175  -0.000069  -0.000309   0.000111   0.208731
    24  H    0.000149  -0.000017  -0.000015   0.000018   0.000137  -0.006306
    25  H   -0.032266   0.000930   0.000545   0.001705  -0.002602  -0.012611
    26  H   -0.001903  -0.000008   0.000001   0.000007   0.000004   0.003825
    27  H    0.005498   0.000016  -0.000001   0.000013  -0.000011  -0.019956
    28  H   -0.041581  -0.000051   0.000009  -0.000017   0.000064   0.088457
    29  H   -0.050559   0.000094   0.000007   0.000006   0.000031  -0.071941
    30  H   -0.000195   0.000009   0.000002   0.000002  -0.000002   0.031236
    31  H   -0.004157  -0.000002  -0.000000  -0.000003   0.000001   0.012128
    32  H   -0.023076  -0.000299   0.000132  -0.000241   0.000165   0.003900
    33  H   -0.004603   0.000023  -0.000009   0.000001  -0.000003   0.014288
              13         14         15         16         17         18
     1  C   -0.471382   0.289317  -0.072657   0.080619  -0.031043  -0.411975
     2  H    0.001365  -0.002593   0.005944  -0.003034   0.000842  -0.038800
     3  C    0.381132  -0.235842  -0.044080  -0.011217   0.056757   0.121464
     4  N   -0.009426   0.003978  -0.008360   0.000341  -0.001229   0.067440
     5  N    0.074921  -0.023936   0.063173  -0.007321   0.004491  -0.072321
     6  N   -0.074731   0.015475  -0.145530   0.015499  -0.025810   0.065387
     7  B   -0.071566   0.042052   0.147155  -0.154844   0.084471   0.548869
     8  C   -0.000186   0.002234  -0.001222   0.000856  -0.000413  -0.010218
     9  H   -0.000794   0.000423  -0.000541   0.000193  -0.000095  -0.000753
    10  H    0.000164  -0.000254  -0.000176   0.000097  -0.000032   0.005732
    11  H   -0.000317   0.000271  -0.000140  -0.000013  -0.000006  -0.004540
    12  C    0.319353  -0.302809  -0.902340  -1.285223   0.026013  -1.183534
    13  C    8.458500  -1.686295  -1.030531   0.817257  -0.860472  -0.553061
    14  C   -1.686295   7.842200   0.892064  -1.019577  -0.492322   0.624033
    15  C   -1.030531   0.892064   7.491431  -0.973424   0.558659   0.101530
    16  C    0.817257  -1.019577  -0.973424   8.103818   0.531092  -0.230278
    17  C   -0.860472  -0.492322   0.558659   0.531092   6.153425   0.107185
    18  C   -0.553061   0.624033   0.101530  -0.230278   0.107185   9.188588
    19  C    0.572597  -0.672147  -0.050683   0.064078  -0.021751  -0.368222
    20  C   -0.386199   0.572345  -0.008912   0.047689  -0.002819   0.158600
    21  C    0.126920  -0.002734   0.029770   0.107513  -0.006221  -1.155588
    22  C   -0.098033   0.080236  -0.021023   0.055119   0.002679  -1.405094
    23  C    0.023497  -0.088377   0.006882  -0.047244  -0.007423   0.213610
    24  H    0.000226   0.001558  -0.000150   0.001392   0.000225   0.023222
    25  H   -0.017862   0.018177  -0.004420   0.006308  -0.000770  -0.067745
    26  H    0.000174  -0.001444   0.000033  -0.000758  -0.000134   0.016099
    27  H   -0.002984   0.006827  -0.000540   0.005503   0.001565   0.028674
    28  H    0.034397  -0.051965  -0.001842  -0.007272  -0.001484  -0.131232
    29  H   -0.013943   0.449440   0.016926  -0.057724  -0.002654   0.034770
    30  H    0.028691  -0.060538  -0.008593   0.397166  -0.061245  -0.008541
    31  H   -0.026563  -0.028609  -0.039225  -0.059191   0.476956  -0.000690
    32  H    0.397744  -0.011395  -0.107097   0.016800   0.002449  -0.013309
    33  H   -0.048205   0.022592   0.425688  -0.016767  -0.066914  -0.008815
              19         20         21         22         23         24
     1  C   -0.034108   0.071016  -0.007738   0.550102  -0.051741   0.000577
     2  H    0.001919   0.002931   0.027673  -0.001845   0.012106  -0.002688
     3  C    0.055088  -0.034114   0.076588  -0.592431   0.063785  -0.001896
     4  N   -0.010307  -0.005691  -0.003431  -0.005636  -0.003260   0.000393
     5  N    0.036607  -0.027461   0.013258  -0.018678   0.000806  -0.000463
     6  N   -0.020148  -0.002712  -0.015931   0.028213   0.000320   0.000380
     7  B   -0.063817  -0.213421  -0.022356  -0.037803   0.074377   0.000149
     8  C    0.002101  -0.001522   0.001466   0.004954  -0.001175  -0.000017
     9  H    0.000099  -0.000650   0.000055   0.000538  -0.000069  -0.000015
    10  H    0.000198  -0.002446  -0.000092  -0.001753  -0.000309   0.000018
    11  H   -0.000438   0.002960  -0.000566   0.002415   0.000111   0.000137
    12  C    0.538615  -0.381493  -0.236823   0.082472   0.208731  -0.006306
    13  C    0.572597  -0.386199   0.126920  -0.098033   0.023497   0.000226
    14  C   -0.672147   0.572345  -0.002734   0.080236  -0.088377   0.001558
    15  C   -0.050683  -0.008912   0.029770  -0.021023   0.006882  -0.000150
    16  C    0.064078   0.047689   0.107513   0.055119  -0.047244   0.001392
    17  C   -0.021751  -0.002819  -0.006221   0.002679  -0.007423   0.000225
    18  C   -0.368222   0.158600  -1.155588  -1.405094   0.213610   0.023222
    19  C    6.998300  -0.927755  -0.300279   0.331304  -0.567155   0.019205
    20  C   -0.927755   7.748018   0.335696  -0.436549  -0.809631  -0.043051
    21  C   -0.300279   0.335696   7.341754  -0.462663   0.424915  -0.008065
    22  C    0.331304  -0.436549  -0.462663   7.528507   0.524471   0.384292
    23  C   -0.567155  -0.809631   0.424915   0.524471   6.171863  -0.056061
    24  H    0.019205  -0.043051  -0.008065   0.384292  -0.056061   0.459957
    25  H   -0.015678   0.473232   0.001563  -0.048018  -0.023952  -0.006921
    26  H   -0.015818  -0.029544  -0.063605  -0.047636   0.477357  -0.008673
    27  H   -0.056223   0.032420   0.392536  -0.011995  -0.060422   0.001296
    28  H    0.480140  -0.031349  -0.053371   0.027771  -0.000723   0.000177
    29  H   -0.030039   0.034890  -0.019326   0.015807   0.002943   0.000204
    30  H    0.005153  -0.003517   0.002463  -0.000579   0.001286  -0.000034
    31  H    0.000312   0.000450  -0.000098   0.000233  -0.000101   0.000004
    32  H    0.005825  -0.001125   0.001303   0.002325   0.000036  -0.000017
    33  H    0.002392  -0.000138   0.000969  -0.000154   0.000316  -0.000010
              25         26         27         28         29         30
     1  C    0.031082  -0.000250   0.001254  -0.008280  -0.015041   0.001563
     2  H   -0.011428  -0.000752   0.000233  -0.002931  -0.001255  -0.000010
     3  C    0.000773   0.000269  -0.001361   0.004765  -0.003082  -0.001777
     4  N    0.011180   0.000021   0.000053   0.000908   0.001397  -0.000026
     5  N   -0.010989  -0.000069   0.000046  -0.000694  -0.001231  -0.000005
     6  N    0.005398   0.000100  -0.000209   0.002941   0.003609   0.000189
     7  B   -0.032266  -0.001903   0.005498  -0.041581  -0.050559  -0.000195
     8  C    0.000930  -0.000008   0.000016  -0.000051   0.000094   0.000009
     9  H    0.000545   0.000001  -0.000001   0.000009   0.000007   0.000002
    10  H    0.001705   0.000007   0.000013  -0.000017   0.000006   0.000002
    11  H   -0.002602   0.000004  -0.000011   0.000064   0.000031  -0.000002
    12  C   -0.012611   0.003825  -0.019956   0.088457  -0.071941   0.031236
    13  C   -0.017862   0.000174  -0.002984   0.034397  -0.013943   0.028691
    14  C    0.018177  -0.001444   0.006827  -0.051965   0.449440  -0.060538
    15  C   -0.004420   0.000033  -0.000540  -0.001842   0.016926  -0.008593
    16  C    0.006308  -0.000758   0.005503  -0.007272  -0.057724   0.397166
    17  C   -0.000770  -0.000134   0.001565  -0.001484  -0.002654  -0.061245
    18  C   -0.067745   0.016099   0.028674  -0.131232   0.034770  -0.008541
    19  C   -0.015678  -0.015818  -0.056223   0.480140  -0.030039   0.005153
    20  C    0.473232  -0.029544   0.032420  -0.031349   0.034890  -0.003517
    21  C    0.001563  -0.063605   0.392536  -0.053371  -0.019326   0.002463
    22  C   -0.048018  -0.047636  -0.011995   0.027771   0.015807  -0.000579
    23  C   -0.023952   0.477357  -0.060422  -0.000723   0.002943   0.001286
    24  H   -0.006921  -0.008673   0.001296   0.000177   0.000204  -0.000034
    25  H    0.497625   0.000841   0.000614  -0.002113  -0.002217   0.000144
    26  H    0.000841   0.469706  -0.009675   0.001306  -0.000064   0.000038
    27  H    0.000614  -0.009675   0.458570  -0.010305  -0.003060  -0.000010
    28  H   -0.002113   0.001306  -0.010305   0.477979   0.009557  -0.001824
    29  H   -0.002217  -0.000064  -0.003060   0.009557   0.502505  -0.010183
    30  H    0.000144   0.000038  -0.000010  -0.001824  -0.010183   0.463765
    31  H   -0.000073  -0.000003   0.000008   0.000268   0.001754  -0.010666
    32  H   -0.000252  -0.000004  -0.000039   0.000642  -0.002708  -0.000080
    33  H   -0.000081   0.000003  -0.000054   0.000167  -0.000089   0.001564
              31         32         33
     1  C   -0.000072   0.030776  -0.001688
     2  H    0.000023  -0.000297   0.000036
     3  C    0.000978   0.001133  -0.001598
     4  N   -0.000018   0.001177  -0.000161
     5  N    0.000138  -0.007065   0.001041
     6  N   -0.000275  -0.005303  -0.000182
     7  B   -0.004157  -0.023076  -0.004603
     8  C   -0.000002  -0.000299   0.000023
     9  H   -0.000000   0.000132  -0.000009
    10  H   -0.000003  -0.000241   0.000001
    11  H    0.000001   0.000165  -0.000003
    12  C    0.012128   0.003900   0.014288
    13  C   -0.026563   0.397744  -0.048205
    14  C   -0.028609  -0.011395   0.022592
    15  C   -0.039225  -0.107097   0.425688
    16  C   -0.059191   0.016800  -0.016767
    17  C    0.476956   0.002449  -0.066914
    18  C   -0.000690  -0.013309  -0.008815
    19  C    0.000312   0.005825   0.002392
    20  C    0.000450  -0.001125  -0.000138
    21  C   -0.000098   0.001303   0.000969
    22  C    0.000233   0.002325  -0.000154
    23  C   -0.000101   0.000036   0.000316
    24  H    0.000004  -0.000017  -0.000010
    25  H   -0.000073  -0.000252  -0.000081
    26  H   -0.000003  -0.000004   0.000003
    27  H    0.000008  -0.000039  -0.000054
    28  H    0.000268   0.000642   0.000167
    29  H    0.001754  -0.002708  -0.000089
    30  H   -0.010666  -0.000080   0.001564
    31  H    0.474770   0.001425  -0.010100
    32  H    0.001425   0.471389  -0.006311
    33  H   -0.010100  -0.006311   0.461816
 Mulliken charges:
               1
     1  C   -0.489241
     2  H    0.265679
     3  C   -0.777899
     4  N    0.278410
     5  N    0.108375
     6  N   -0.142234
     7  B    0.518163
     8  C   -0.366650
     9  H    0.210205
    10  H    0.197700
    11  H    0.205073
    12  C    0.102151
    13  C    0.115610
    14  C   -0.182385
    15  C   -0.317770
    16  C   -0.377454
    17  C   -0.423973
    18  C    0.359515
    19  C    0.040633
    20  C   -0.130145
    21  C   -0.525555
    22  C   -0.431548
    23  C   -0.489769
    24  H    0.240956
    25  H    0.209882
    26  H    0.210557
    27  H    0.241718
    28  H    0.217485
    29  H    0.211176
    30  H    0.234552
    31  H    0.210398
    32  H    0.241400
    33  H    0.234985
 Sum of Mulliken charges =  -0.00000
 Mulliken charges with hydrogens summed into heavy atoms:
               1
     1  C   -0.223562
     3  C   -0.777899
     4  N    0.278410
     5  N    0.108375
     6  N   -0.142234
     7  B    0.518163
     8  C    0.246328
    12  C    0.102151
    13  C    0.357010
    14  C    0.028791
    15  C   -0.082785
    16  C   -0.142901
    17  C   -0.213576
    18  C    0.359515
    19  C    0.258118
    20  C    0.079737
    21  C   -0.283836
    22  C   -0.190593
    23  C   -0.279211
 Electronic spatial extent (au):  <R**2>=          14022.1504
 Charge=             -0.0000 electrons
 Dipole moment (field-independent basis, Debye):
    X=             -0.0881    Y=              4.0436    Z=              3.2020  Tot=              5.1586
 Quadrupole moment (field-independent basis, Debye-Ang):
   XX=           -105.8990   YY=            -85.7848   ZZ=           -107.8528
   XY=              8.8562   XZ=             13.4785   YZ=              3.5609
 Traceless Quadrupole moment (field-independent basis, Debye-Ang):
   XX=             -6.0535   YY=             14.0608   ZZ=             -8.0073
   XY=              8.8562   XZ=             13.4785   YZ=              3.5609
 Octapole moment (field-independent basis, Debye-Ang**2):
  XXX=          -1258.6352  YYY=            198.7260  ZZZ=           -490.8472  XYY=           -365.7525
  XXY=             96.8499  XXZ=           -104.3297  XZZ=           -391.4512  YZZ=             68.8660
  YYZ=           -171.4882  XYZ=              7.3117
 Hexadecapole moment (field-independent basis, Debye-Ang**3):
 XXXX=         -11729.8660 YYYY=          -3589.0925 ZZZZ=          -3511.4310 XXXY=           1162.9145
 XXXZ=          -2428.1244 YYYX=            859.2411 YYYZ=            244.8238 ZZZX=          -2518.5202
 ZZZY=            178.8770 XXYY=          -2380.3878 XXZZ=          -2275.4977 YYZZ=          -1347.8233
 XXYZ=            123.3655 YYXZ=           -876.2815 ZZXY=            361.2425
 N-N= 1.252178471647D+03 E-N=-4.291718730262D+03  KE= 7.658664458036D+02
 Breneman (CHELPG) radii used.
 Generate Potential Derived Charges using the Breneman model, NDens= 1.
 Grid spacing= 0.300 Box extension= 2.800
 NStep X,Y,Z=   41     54     43   Total possible points=       95202
 Number of Points to Fit=   20639

 **********************************************************************

            Electrostatic Properties Using The SCF Density.

 **********************************************************************

       Atomic Center    1 is at   2.781677  1.648486  1.168895
       Atomic Center    2 is at   3.017560  2.215326  2.054704
       Atomic Center    3 is at   3.115823  0.361680  0.781062
       Atomic Center    4 is at   2.020111  2.138382  0.181968
       Atomic Center    5 is at   1.877574  1.223012 -0.796902
       Atomic Center    6 is at   2.519174  0.165008 -0.444221
       Atomic Center    7 is at   3.959661 -0.685775  1.555638
       Atomic Center    8 is at   1.404521  3.446220  0.060223
       Atomic Center    9 is at   0.766924  3.426817 -0.821038
       Atomic Center   10 is at   0.802148  3.656071  0.943874
       Atomic Center   11 is at   2.169709  4.213916 -0.059021
       Atomic Center   12 is at   3.905370 -2.207170  1.210845
       Atomic Center   13 is at   2.795015 -2.787710  0.574937
       Atomic Center   14 is at   4.982510 -3.051365  1.530842
       Atomic Center   15 is at   2.755491 -4.146088  0.288972
       Atomic Center   16 is at   4.958693 -4.406089  1.225984
       Atomic Center   17 is at   3.839684 -4.956747  0.609902
       Atomic Center   18 is at   4.861922 -0.167757  2.732551
       Atomic Center   19 is at   4.931022 -0.863874  3.949423
       Atomic Center   20 is at   5.620662  1.007329  2.616665
       Atomic Center   21 is at   5.702371 -0.398787  5.007493
       Atomic Center   22 is at   6.419502  1.460971  3.659737
       Atomic Center   23 is at   6.454253  0.762437  4.861892
       Atomic Center   24 is at   7.012243  2.361012  3.537287
       Atomic Center   25 is at   5.602413  1.565387  1.685648
       Atomic Center   26 is at   7.068111  1.119730  5.681538
       Atomic Center   27 is at   5.725406 -0.946759  5.943143
       Atomic Center   28 is at   4.362324 -1.780272  4.071402
       Atomic Center   29 is at   5.859123 -2.635126  2.016342
       Atomic Center   30 is at   5.808616 -5.033518  1.471134
       Atomic Center   31 is at   3.813560 -6.016118  0.377755
       Atomic Center   32 is at   1.954362 -2.162848  0.298900
       Atomic Center   33 is at   1.883051 -4.572711 -0.193650
   20639 points will be used for fitting atomic charges
 Fitting point charges to electrostatic potential
 Charges from ESP fit, RMS=   0.00495 RRMS=   0.26033:
 ESP charges:
               1
     1  C   -0.320058
     2  H    0.119513
     3  C    0.276312
     4  N    0.546618
     5  N   -0.355992
     6  N   -0.342416
     7  B    0.058305
     8  C   -0.248518
     9  H    0.088406
    10  H    0.109380
    11  H    0.115559
    12  C    0.068762
    13  C   -0.248455
    14  C   -0.058609
    15  C   -0.019086
    16  C   -0.102235
    17  C   -0.120717
    18  C    0.015472
    19  C   -0.069315
    20  C   -0.050906
    21  C   -0.113670
    22  C   -0.138161
    23  C   -0.095169
    24  H    0.108334
    25  H    0.058266
    26  H    0.101577
    27  H    0.105467
    28  H    0.050385
    29  H    0.038584
    30  H    0.099528
    31  H    0.100847
    32  H    0.142449
    33  H    0.079540
 Sum of ESP charges =   0.00000
 ESP charges with hydrogens summed into heavy atoms:
               1
     1  C   -0.200546
     3  C    0.276312
     4  N    0.546618
     5  N   -0.355992
     6  N   -0.342416
     7  B    0.058305
     8  C    0.064828
    12  C    0.068762
    13  C   -0.106006
    14  C   -0.020025
    15  C    0.060455
    16  C   -0.002707
    17  C   -0.019870
    18  C    0.015472
    19  C   -0.018931
    20  C    0.007360
    21  C   -0.008202
    22  C   -0.029827
    23  C    0.006408
 Charge=   0.00000 Dipole=    -0.0278     3.9484     3.1032 Tot=     5.0220
 -----------------------------------------------------------------

              Electrostatic Properties (Atomic Units)

 -----------------------------------------------------------------
    Center     Electric         -------- Electric Field --------
               Potential          X             Y             Z
 -----------------------------------------------------------------
    1 Atom    -14.722435
    2 Atom     -1.047400
    3 Atom    -14.773403
    4 Atom    -18.291875
    5 Atom    -18.357347
    6 Atom    -18.395159
    7 Atom    -11.469330
    8 Atom    -14.706674
    9 Atom     -1.072682
   10 Atom     -1.067184
   11 Atom     -1.069987
   12 Atom    -14.798896
   13 Atom    -14.787480
   14 Atom    -14.781224
   15 Atom    -14.785300
   16 Atom    -14.782023
   17 Atom    -14.776872
   18 Atom    -14.786981
   19 Atom    -14.772520
   20 Atom    -14.768956
   21 Atom    -14.771549
   22 Atom    -14.769394
   23 Atom    -14.767181
   24 Atom     -1.099299
   25 Atom     -1.104053
   26 Atom     -1.098719
   27 Atom     -1.102343
   28 Atom     -1.110901
   29 Atom     -1.117616
   30 Atom     -1.110844
   31 Atom     -1.108229
   32 Atom     -1.129797
   33 Atom     -1.115257
 -----------------------------------------------------------------
 Unable to Open any file for archive entry.
 1\1\GINC-IRENE5509\SP\RwB97XD\GenECP\C15H14B1N3\PENASFRA\09-Apr-2024\0
 \\# wb97xd/genecp scrf=(solvent=toluene,pcm) nosymm pop=(chelpg) scfcy
 c=300\\ph_metriazole_chelpg\\0,1\C,0,2.781677,1.648486,1.168895\H,0,3.
 01756,2.215326,2.054704\C,0,3.115823,0.36168,0.781062\N,0,2.020111,2.1
 38382,0.181968\N,0,1.877574,1.223012,-0.796902\N,0,2.519174,0.165008,-
 0.444221\B,0,3.959661,-0.685775,1.555638\C,0,1.404521,3.44622,0.060223
 \H,0,0.766924,3.426817,-0.821038\H,0,0.802148,3.656071,0.943874\H,0,2.
 169709,4.213916,-0.059021\C,0,3.90537,-2.20717,1.210845\C,0,2.795015,-
 2.78771,0.574937\C,0,4.98251,-3.051365,1.530842\C,0,2.755491,-4.146088
 ,0.288972\C,0,4.958693,-4.406089,1.225984\C,0,3.839684,-4.956747,0.609
 902\C,0,4.861922,-0.167757,2.732551\C,0,4.931022,-0.863874,3.949423\C,
 0,5.620662,1.007329,2.616665\C,0,5.702371,-0.398787,5.007493\C,0,6.419
 502,1.460971,3.659737\C,0,6.454253,0.762437,4.861892\H,0,7.012243,2.36
 1012,3.537287\H,0,5.602413,1.565387,1.685648\H,0,7.068111,1.11973,5.68
 1538\H,0,5.725406,-0.946759,5.943143\H,0,4.362324,-1.780272,4.071402\H
 ,0,5.859123,-2.635126,2.016342\H,0,5.808616,-5.033518,1.471134\H,0,3.8
 1356,-6.016118,0.377755\H,0,1.954362,-2.162848,0.2989\H,0,1.883051,-4.
 572711,-0.19365\\Version=AS64L-G16RevC.02\HF=-769.0506431\RMSD=5.287e-
 09\Dipole=-0.0346597,1.5908847,1.2597567\Quadrupole=-4.5006276,10.4538
 32,-5.9532044,6.5843629,10.020929,2.6474568\PG=C01 [X(C15H14B1N3)]\\@
 The archive entry for this job was punched.


 ALTHOUGH J.J. COULD DIAGNOSE THE FAULTS OF AN
 APPARATUS WITH UNCANNY ACCURACY, IT WAS JUST AS
 WELL NOT TO LET HIM HANDLE IT.
   -- GEORGE THOMPSON, ABOUT HIS FATHER
 Job cpu time:       0 days  1 hours 19 minutes  5.8 seconds.
 Elapsed time:       0 days  0 hours  0 minutes 51.8 seconds.
 File lengths (MBytes):  RWF=    253 Int=      0 D2E=      0 Chk=     17 Scr=      1
 Normal termination of Gaussian 16 at Tue Apr  9 16:53:20 2024.
