 Entering Gaussian System, Link 0=/ccc/products/gaussian-16-C.02/system/default/g16/g16
 Input=ph_naphtoxanthene_chelpg.gjf
 Output=ph_naphtoxanthene_chelpg.log
 Initial command:
 /ccc/products/gaussian-16-C.02/system/default/g16/l1.exe "/ccc/scratch/cont003/gen7343/penasfra/flp/b-n_flp/ph_naphtoxanthene/reac/Gau-2108513.inp" -scrdir="/ccc/scratch/cont003/gen7343/penasfra/flp/b-n_flp/ph_naphtoxanthene/reac/"
 Entering Link 1 = /ccc/products/gaussian-16-C.02/system/default/g16/l1.exe PID=   2108562.
  
 Copyright (c) 1988-2021, Gaussian, Inc.  All Rights Reserved.
  
 This is part of the Gaussian(R) 16 program.  It is based on
 the Gaussian(R) 09 system (copyright 2009, Gaussian, Inc.),
 the Gaussian(R) 03 system (copyright 2003, Gaussian, Inc.),
 the Gaussian(R) 98 system (copyright 1998, Gaussian, Inc.),
 the Gaussian(R) 94 system (copyright 1995, Gaussian, Inc.),
 the Gaussian 92(TM) system (copyright 1992, Gaussian, Inc.),
 the Gaussian 90(TM) system (copyright 1990, Gaussian, Inc.),
 the Gaussian 88(TM) system (copyright 1988, Gaussian, Inc.),
 the Gaussian 86(TM) system (copyright 1986, Carnegie Mellon
 University), and the Gaussian 82(TM) system (copyright 1983,
 Carnegie Mellon University). Gaussian is a federally registered
 trademark of Gaussian, Inc.
  
 This software contains proprietary and confidential information,
 including trade secrets, belonging to Gaussian, Inc.
  
 This software is provided under written license and may be
 used, copied, transmitted, or stored only in accord with that
 written license.
  
 The following legend is applicable only to US Government
 contracts under FAR:
  
                    RESTRICTED RIGHTS LEGEND
  
 Use, reproduction and disclosure by the US Government is
 subject to restrictions as set forth in subparagraphs (a)
 and (c) of the Commercial Computer Software - Restricted
 Rights clause in FAR 52.227-19.
  
 Gaussian, Inc.
 340 Quinnipiac St., Bldg. 40, Wallingford CT 06492
  
  
 ---------------------------------------------------------------
 Warning -- This program may not be used in any manner that
 competes with the business of Gaussian, Inc. or will provide
 assistance to any competitor of Gaussian, Inc.  The licensee
 of this program is prohibited from giving any competitor of
 Gaussian, Inc. access to this program.  By using this program,
 the user acknowledges that Gaussian, Inc. is engaged in the
 business of creating and licensing software in the field of
 computational chemistry and represents and warrants to the
 licensee that it is not a competitor of Gaussian, Inc. and that
 it will not use this program in any manner prohibited above.
 ---------------------------------------------------------------
  

 Cite this work as:
 Gaussian 16, Revision C.02,
 M. J. Frisch, G. W. Trucks, H. B. Schlegel, G. E. Scuseria, 
 M. A. Robb, J. R. Cheeseman, G. Scalmani, V. Barone, 
 G. A. Petersson, H. Nakatsuji, X. Li, M. Caricato, A. V. Marenich, 
 J. Bloino, B. G. Janesko, R. Gomperts, B. Mennucci, H. P. Hratchian, 
 J. V. Ortiz, A. F. Izmaylov, J. L. Sonnenberg, D. Williams-Young, 
 F. Ding, F. Lipparini, F. Egidi, J. Goings, B. Peng, A. Petrone, 
 T. Henderson, D. Ranasinghe, V. G. Zakrzewski, J. Gao, N. Rega, 
 G. Zheng, W. Liang, M. Hada, M. Ehara, K. Toyota, R. Fukuda, 
 J. Hasegawa, M. Ishida, T. Nakajima, Y. Honda, O. Kitao, H. Nakai, 
 T. Vreven, K. Throssell, J. A. Montgomery, Jr., J. E. Peralta, 
 F. Ogliaro, M. J. Bearpark, J. J. Heyd, E. N. Brothers, K. N. Kudin, 
 V. N. Staroverov, T. A. Keith, R. Kobayashi, J. Normand, 
 K. Raghavachari, A. P. Rendell, J. C. Burant, S. S. Iyengar, 
 J. Tomasi, M. Cossi, J. M. Millam, M. Klene, C. Adamo, R. Cammi, 
 J. W. Ochterski, R. L. Martin, K. Morokuma, O. Farkas, 
 J. B. Foresman, and D. J. Fox, Gaussian, Inc., Wallingford CT, 2019.
 
 ******************************************
 Gaussian 16:  AS64L-G16RevC.02  7-Dec-2021
                11-Apr-2024 
 ******************************************
 %nprocshared=128
 Will use up to  128 processors via shared memory.
 %mem=30GB
 %chk=ph_naphtoxanthene_chelpg.chk
 ----------------------------------------------------------------------
 # wb97xd/genecp scrf=(solvent=toluene,pcm) nosymm pop=(chelpg) scfcyc=
 300
 ----------------------------------------------------------------------
 1/38=1,172=1/1;
 2/12=2,15=1,17=6,18=5,40=1/2;
 3/5=7,11=2,16=1,17=8,25=1,30=1,70=2201,72=13,74=-58/1,2,3;
 4//1;
 5/5=2,7=300,38=5,53=13/2;
 6/7=2,8=2,9=2,10=2,15=8,20=3,28=1/1,2;
 99/5=1,9=1/99;
 ------------------------
 ph_naphtoxanthene_chelpg
 ------------------------
 Symbolic Z-matrix:
 Charge =  0 Multiplicity = 1
 C                    -2.64664   2.23374   1.79953 
 C                    -1.6025    2.62366   2.68136 
 C                    -0.75608   3.67269   2.42112 
 C                    -0.91071   4.42948   1.23844 
 C                    -1.95561   4.09125   0.35557 
 C                    -2.80515   3.00878   0.65927 
 H                    -1.46366   2.04931   3.59138 
 H                     0.03791   3.92506   3.11539 
 C                    -2.13603   4.8107   -0.8589 
 O                    -3.84968   2.71493  -0.16302 
 C                    -3.18382   4.40571  -1.73648 
 C                    -4.0184    3.34385  -1.36313 
 C                    -3.35106   5.04539  -2.98257 
 C                    -5.03972   2.8867   -2.19168 
 C                    -4.36937   4.57687  -3.82959 
 C                    -5.18301   3.53552  -3.43805 
 H                    -4.52024   5.0456   -4.79597 
 H                    -5.96613   3.20486  -4.10905 
 B                    -3.51414   0.96228   2.09574 
 N                    -5.8429    1.80605  -1.79184 
 C                    -6.66755   2.02367  -0.6112 
 H                    -7.50657   2.70752  -0.81985 
 H                    -7.07149   1.06437  -0.28214 
 H                    -6.07104   2.4308    0.20271 
 C                    -6.54729   1.08992  -2.8335 
 H                    -6.90526   0.1454   -2.41735 
 H                    -7.41783   1.63727  -3.23379 
 H                    -5.86898   0.85878  -3.65708 
 C                    -2.46868   6.12716  -3.30729 
 H                    -2.5996    6.6313   -4.25915 
 C                    -1.4866    6.52143  -2.45386 
 H                    -0.82983   7.34308  -2.72022 
 C                    -1.28579   5.85947  -1.19945 
 C                    -0.24458   6.2064   -0.28577 
 C                    -0.06404   5.52437   0.87977 
 H                     0.41702   7.02848  -0.53976 
 H                     0.73871   5.80113   1.5549 
 C                    -3.93887   0.66349   3.57416 
 C                    -4.0743   -0.65051   4.05002 
 C                    -4.19955   1.70798   4.47589 
 C                    -4.4408   -0.91075   5.36467 
 H                    -3.87653  -1.48131   3.38054 
 C                    -4.5956    1.45569   5.78326 
 H                    -4.09764   2.73577   4.14172 
 C                    -4.71029   0.14356   6.23138 
 H                    -4.52285  -1.93452   5.71315 
 H                    -4.80658   2.27984   6.45593 
 H                    -5.00739  -0.05698   7.25518 
 C                    -3.9127   -0.01852   0.94172 
 C                    -3.08561  -0.19761  -0.17775 
 C                    -5.12216  -0.72635   0.97029 
 C                    -3.44304  -1.04457  -1.21579 
 H                    -2.14591   0.34337  -0.23534 
 C                    -5.50299  -1.55355  -0.08009 
 H                    -5.78869  -0.60907   1.81903 
 C                    -4.66059  -1.71755  -1.173 
 H                    -2.78275  -1.16978  -2.06703 
 H                    -6.45413  -2.07433  -0.04355 
 H                    -4.95131  -2.36778  -1.9914 
 
 Symmetry turned off by external request.
 Stoichiometry    C32H24BNO
 Framework group  C1[X(C32H24BNO)]
 Deg. of freedom   171
 Full point group                 C1      NOp   1
                          Input orientation:                          
 ---------------------------------------------------------------------
 Center     Atomic      Atomic             Coordinates (Angstroms)
 Number     Number       Type             X           Y           Z
 ---------------------------------------------------------------------
      1          6           0       -2.646641    2.233743    1.799525
      2          6           0       -1.602503    2.623658    2.681356
      3          6           0       -0.756082    3.672691    2.421119
      4          6           0       -0.910707    4.429478    1.238436
      5          6           0       -1.955609    4.091251    0.355571
      6          6           0       -2.805150    3.008777    0.659268
      7          1           0       -1.463663    2.049308    3.591379
      8          1           0        0.037914    3.925058    3.115390
      9          6           0       -2.136033    4.810703   -0.858899
     10          8           0       -3.849677    2.714932   -0.163022
     11          6           0       -3.183820    4.405712   -1.736481
     12          6           0       -4.018398    3.343848   -1.363129
     13          6           0       -3.351057    5.045387   -2.982574
     14          6           0       -5.039721    2.886696   -2.191682
     15          6           0       -4.369370    4.576867   -3.829587
     16          6           0       -5.183006    3.535519   -3.438053
     17          1           0       -4.520237    5.045600   -4.795971
     18          1           0       -5.966131    3.204856   -4.109052
     19          5           0       -3.514138    0.962278    2.095736
     20          7           0       -5.842896    1.806049   -1.791843
     21          6           0       -6.667548    2.023667   -0.611199
     22          1           0       -7.506569    2.707515   -0.819845
     23          1           0       -7.071489    1.064372   -0.282144
     24          1           0       -6.071036    2.430803    0.202705
     25          6           0       -6.547294    1.089924   -2.833504
     26          1           0       -6.905255    0.145396   -2.417353
     27          1           0       -7.417829    1.637273   -3.233794
     28          1           0       -5.868981    0.858782   -3.657078
     29          6           0       -2.468675    6.127159   -3.307293
     30          1           0       -2.599600    6.631298   -4.259154
     31          6           0       -1.486603    6.521427   -2.453858
     32          1           0       -0.829829    7.343082   -2.720219
     33          6           0       -1.285790    5.859465   -1.199454
     34          6           0       -0.244575    6.206401   -0.285771
     35          6           0       -0.064035    5.524371    0.879766
     36          1           0        0.417022    7.028484   -0.539759
     37          1           0        0.738709    5.801133    1.554898
     38          6           0       -3.938872    0.663489    3.574163
     39          6           0       -4.074299   -0.650512    4.050022
     40          6           0       -4.199548    1.707981    4.475889
     41          6           0       -4.440800   -0.910754    5.364667
     42          1           0       -3.876534   -1.481305    3.380536
     43          6           0       -4.595601    1.455686    5.783258
     44          1           0       -4.097645    2.735774    4.141715
     45          6           0       -4.710288    0.143557    6.231380
     46          1           0       -4.522848   -1.934515    5.713148
     47          1           0       -4.806582    2.279841    6.455927
     48          1           0       -5.007391   -0.056975    7.255178
     49          6           0       -3.912697   -0.018519    0.941721
     50          6           0       -3.085614   -0.197611   -0.177752
     51          6           0       -5.122161   -0.726348    0.970293
     52          6           0       -3.443042   -1.044570   -1.215793
     53          1           0       -2.145911    0.343373   -0.235337
     54          6           0       -5.502990   -1.553546   -0.080091
     55          1           0       -5.788693   -0.609070    1.819033
     56          6           0       -4.660585   -1.717548   -1.173001
     57          1           0       -2.782746   -1.169783   -2.067033
     58          1           0       -6.454125   -2.074332   -0.043552
     59          1           0       -4.951306   -2.367784   -1.991400
 ---------------------------------------------------------------------
 Rotational constants (GHZ):           0.1742994           0.1045095           0.0738928
 General basis read from cards:  (5D, 7F)
 ======================================================================================================
                                       Pseudopotential Parameters
 ======================================================================================================
  Center     Atomic      Valence      Angular      Power
  Number     Number     Electrons     Momentum     of R      Exponent        Coefficient   SO-Coeffient
 ======================================================================================================
    1          6
                                   No pseudopotential on this center.
    2          6
                                   No pseudopotential on this center.
    3          6
                                   No pseudopotential on this center.
    4          6
                                   No pseudopotential on this center.
    5          6
                                   No pseudopotential on this center.
    6          6
                                   No pseudopotential on this center.
    7          1
                                   No pseudopotential on this center.
    8          1
                                   No pseudopotential on this center.
    9          6
                                   No pseudopotential on this center.
   10          8
                                   No pseudopotential on this center.
   11          6
                                   No pseudopotential on this center.
   12          6
                                   No pseudopotential on this center.
   13          6
                                   No pseudopotential on this center.
   14          6
                                   No pseudopotential on this center.
   15          6
                                   No pseudopotential on this center.
   16          6
                                   No pseudopotential on this center.
   17          1
                                   No pseudopotential on this center.
   18          1
                                   No pseudopotential on this center.
   19          5
                                   No pseudopotential on this center.
   20          7
                                   No pseudopotential on this center.
   21          6
                                   No pseudopotential on this center.
   22          1
                                   No pseudopotential on this center.
   23          1
                                   No pseudopotential on this center.
   24          1
                                   No pseudopotential on this center.
   25          6
                                   No pseudopotential on this center.
   26          1
                                   No pseudopotential on this center.
   27          1
                                   No pseudopotential on this center.
   28          1
                                   No pseudopotential on this center.
   29          6
                                   No pseudopotential on this center.
   30          1
                                   No pseudopotential on this center.
   31          6
                                   No pseudopotential on this center.
   32          1
                                   No pseudopotential on this center.
   33          6
                                   No pseudopotential on this center.
   34          6
                                   No pseudopotential on this center.
   35          6
                                   No pseudopotential on this center.
   36          1
                                   No pseudopotential on this center.
   37          1
                                   No pseudopotential on this center.
   38          6
                                   No pseudopotential on this center.
   39          6
                                   No pseudopotential on this center.
   40          6
                                   No pseudopotential on this center.
   41          6
                                   No pseudopotential on this center.
   42          1
                                   No pseudopotential on this center.
   43          6
                                   No pseudopotential on this center.
   44          1
                                   No pseudopotential on this center.
   45          6
                                   No pseudopotential on this center.
   46          1
                                   No pseudopotential on this center.
   47          1
                                   No pseudopotential on this center.
   48          1
                                   No pseudopotential on this center.
   49          6
                                   No pseudopotential on this center.
   50          6
                                   No pseudopotential on this center.
   51          6
                                   No pseudopotential on this center.
   52          6
                                   No pseudopotential on this center.
   53          1
                                   No pseudopotential on this center.
   54          6
                                   No pseudopotential on this center.
   55          1
                                   No pseudopotential on this center.
   56          6
                                   No pseudopotential on this center.
   57          1
                                   No pseudopotential on this center.
   58          1
                                   No pseudopotential on this center.
   59          1
                                   No pseudopotential on this center.
 ======================================================================================================
   938 basis functions,  1476 primitive gaussians,   973 cartesian basis functions
   118 alpha electrons      118 beta electrons
       nuclear repulsion energy      3474.8960089522 Hartrees.
 NAtoms=   59 NActive=   59 NUniq=   59 SFac= 1.00D+00 NAtFMM=   60 NAOKFM=F Big=F
 Integral buffers will be    131072 words long.
 Raffenetti 2 integral format.
 Two-electron integral symmetry is turned off.
 Nuclear repulsion after empirical dispersion term =     3474.8397527833 Hartrees.
 ------------------------------------------------------------------------------
 Polarizable Continuum Model (PCM)
 =================================
 Model                : PCM.
 Atomic radii         : UFF (Universal Force Field).
 Polarization charges : Total charges.
 Charge compensation  : None.
 Solution method      : On-the-fly selection.
 Cavity type          : Scaled VdW (van der Waals Surface) (Alpha=1.100).
 Cavity algorithm     : GePol (No added spheres)
                        Default sphere list used, NSphG=   59.
                        Lebedev-Laikov grids with approx.  5.0 points / Ang**2.
                        Smoothing algorithm: York/Karplus (Gamma=1.0000).
                        Polarization charges: spherical gaussians, with
                                              point-specific exponents (IZeta= 3).
                        Self-potential: point-specific (ISelfS= 7).
                        Self-field    : sphere-specific E.n sum rule (ISelfD= 2).
 Solvent              : Toluene, Eps=   2.374100 Eps(inf)=   2.238315
 ------------------------------------------------------------------------------
 One-electron integrals computed using PRISM.
   1 Symmetry operations used in ECPInt.
 ECPInt:  NShTT=   54615 NPrTT=  195078 LenC2=   45995 LenP2D=  106181.
 LDataN:  DoStor=T MaxTD1= 4 Len=   56
 Number of processors reduced to  52 by ecpmxn.
 NBasis=   938 RedAO= T EigKep=  1.05D-06  NBF=   938
 NBsUse=   920 1.00D-06 EigRej=  7.69D-07 NBFU=   920
 ExpMin= 3.15D-02 ExpMax= 8.59D+03 ExpMxC= 1.30D+03 IAcc=3 IRadAn=         5 AccDes= 0.00D+00
 Harris functional with IExCor= 4639 and IRadAn=       5 diagonalized for initial guess.
 HarFok:  IExCor= 4639 AccDes= 0.00D+00 IRadAn=         5 IDoV= 1 UseB2=F ITyADJ=14
 ICtDFT=  3500011 ScaDFX=  1.000000  1.000000  1.000000  1.000000
 FoFCou: FMM=F IPFlag=           0 FMFlag=      100000 FMFlg1=           0
         NFxFlg=           0 DoJE=T BraDBF=F KetDBF=T FulRan=T
         wScrn=  0.000000 ICntrl=       500 IOpCl=  0 I1Cent=   200000004 NGrid=           0
         NMat0=    1 NMatS0=      1 NMatT0=    0 NMatD0=    1 NMtDS0=    0 NMtDT0=    0
 Symmetry not used in FoFCou.
 Requested convergence on RMS density matrix=1.00D-08 within 300 cycles.
 Requested convergence on MAX density matrix=1.00D-06.
 Requested convergence on             energy=1.00D-06.
 No special actions if energy rises.
 Inv3:  Mode=1 IEnd=    46099200.
 Iteration    1 A*A^-1 deviation from unit magnitude is 3.77D-15 for   3900.
 Iteration    1 A*A^-1 deviation from orthogonality  is 2.38D-15 for   2210   1109.
 Iteration    1 A^-1*A deviation from unit magnitude is 3.55D-15 for   3918.
 Iteration    1 A^-1*A deviation from orthogonality  is 4.55D-14 for   2841   2824.
 Error on total polarization charges =  0.01259
 SCF Done:  E(RwB97XD) =  -1388.60696129     A.U. after   17 cycles
            NFock= 17  Conv=0.87D-08     -V/T= 2.0042

 **********************************************************************

            Population analysis using the SCF Density.

 **********************************************************************

 Alpha  occ. eigenvalues --  -19.30782 -14.43804 -10.36736 -10.35724 -10.32766
 Alpha  occ. eigenvalues --  -10.31027 -10.31012 -10.30814 -10.30782 -10.30361
 Alpha  occ. eigenvalues --  -10.30323 -10.30249 -10.29989 -10.29671 -10.29600
 Alpha  occ. eigenvalues --  -10.29570 -10.29551 -10.29478 -10.29459 -10.29357
 Alpha  occ. eigenvalues --  -10.29139 -10.29112 -10.29015 -10.28960 -10.28958
 Alpha  occ. eigenvalues --  -10.28952 -10.28674 -10.28661 -10.28533 -10.28502
 Alpha  occ. eigenvalues --  -10.28364 -10.27488 -10.27407 -10.26901  -6.84563
 Alpha  occ. eigenvalues --   -1.21309  -1.04532  -1.00382  -0.97932  -0.96104
 Alpha  occ. eigenvalues --   -0.95467  -0.93787  -0.91571  -0.89529  -0.87333
 Alpha  occ. eigenvalues --   -0.86183  -0.85265  -0.84894  -0.84417  -0.83878
 Alpha  occ. eigenvalues --   -0.83181  -0.81205  -0.80509  -0.75967  -0.75669
 Alpha  occ. eigenvalues --   -0.73754  -0.73218  -0.70667  -0.70011  -0.69572
 Alpha  occ. eigenvalues --   -0.69430  -0.68809  -0.66352  -0.65962  -0.64362
 Alpha  occ. eigenvalues --   -0.62704  -0.61371  -0.60719  -0.60517  -0.58727
 Alpha  occ. eigenvalues --   -0.57403  -0.57226  -0.56675  -0.55813  -0.54932
 Alpha  occ. eigenvalues --   -0.54673  -0.54447  -0.53882  -0.53511  -0.53330
 Alpha  occ. eigenvalues --   -0.52811  -0.52126  -0.51890  -0.51232  -0.50851
 Alpha  occ. eigenvalues --   -0.50360  -0.50253  -0.49509  -0.48568  -0.48271
 Alpha  occ. eigenvalues --   -0.48027  -0.47701  -0.47212  -0.46887  -0.46324
 Alpha  occ. eigenvalues --   -0.45869  -0.45567  -0.45191  -0.44943  -0.44628
 Alpha  occ. eigenvalues --   -0.42666  -0.42491  -0.42157  -0.41843  -0.41401
 Alpha  occ. eigenvalues --   -0.40213  -0.39128  -0.38745  -0.37717  -0.35080
 Alpha  occ. eigenvalues --   -0.34472  -0.33890  -0.33543  -0.32727  -0.32309
 Alpha  occ. eigenvalues --   -0.31294  -0.28293  -0.25291
 Alpha virt. eigenvalues --   -0.01461   0.01143   0.01993   0.03651   0.04116
 Alpha virt. eigenvalues --    0.04310   0.04361   0.04963   0.05034   0.05135
 Alpha virt. eigenvalues --    0.05260   0.05463   0.05522   0.05896   0.06085
 Alpha virt. eigenvalues --    0.06235   0.06378   0.07035   0.07102   0.07497
 Alpha virt. eigenvalues --    0.07867   0.08061   0.08479   0.08917   0.09284
 Alpha virt. eigenvalues --    0.09511   0.09752   0.10267   0.10441   0.10595
 Alpha virt. eigenvalues --    0.11090   0.11516   0.11544   0.11823   0.12039
 Alpha virt. eigenvalues --    0.12329   0.12603   0.13200   0.13272   0.13648
 Alpha virt. eigenvalues --    0.13903   0.14352   0.14843   0.14944   0.15167
 Alpha virt. eigenvalues --    0.15322   0.15463   0.15847   0.16021   0.16234
 Alpha virt. eigenvalues --    0.16508   0.16655   0.16841   0.16853   0.17037
 Alpha virt. eigenvalues --    0.17127   0.17242   0.17524   0.17694   0.17948
 Alpha virt. eigenvalues --    0.18033   0.18146   0.18266   0.18424   0.18601
 Alpha virt. eigenvalues --    0.18670   0.19026   0.19265   0.19491   0.19601
 Alpha virt. eigenvalues --    0.19661   0.19978   0.20146   0.20253   0.20501
 Alpha virt. eigenvalues --    0.20635   0.20771   0.20856   0.21180   0.21353
 Alpha virt. eigenvalues --    0.21580   0.21848   0.22097   0.22427   0.22453
 Alpha virt. eigenvalues --    0.22813   0.22906   0.23161   0.23262   0.23608
 Alpha virt. eigenvalues --    0.23711   0.23858   0.24176   0.24414   0.24618
 Alpha virt. eigenvalues --    0.24858   0.24932   0.25197   0.25491   0.25695
 Alpha virt. eigenvalues --    0.25788   0.25947   0.26041   0.26131   0.26431
 Alpha virt. eigenvalues --    0.26901   0.27096   0.27287   0.27727   0.27844
 Alpha virt. eigenvalues --    0.28043   0.28399   0.28475   0.28598   0.28966
 Alpha virt. eigenvalues --    0.29127   0.29325   0.29923   0.30044   0.30114
 Alpha virt. eigenvalues --    0.30352   0.30403   0.30566   0.30889   0.31163
 Alpha virt. eigenvalues --    0.31294   0.31365   0.31652   0.31715   0.31917
 Alpha virt. eigenvalues --    0.32260   0.32464   0.32712   0.33014   0.33088
 Alpha virt. eigenvalues --    0.33218   0.33434   0.33543   0.33737   0.33896
 Alpha virt. eigenvalues --    0.34274   0.34448   0.34581   0.34684   0.34984
 Alpha virt. eigenvalues --    0.35272   0.35532   0.35625   0.35704   0.35826
 Alpha virt. eigenvalues --    0.36051   0.36290   0.36730   0.36813   0.36958
 Alpha virt. eigenvalues --    0.37022   0.37202   0.37483   0.37690   0.37746
 Alpha virt. eigenvalues --    0.37938   0.38165   0.38514   0.38655   0.38760
 Alpha virt. eigenvalues --    0.38977   0.39352   0.39505   0.39617   0.39953
 Alpha virt. eigenvalues --    0.40032   0.40142   0.40304   0.40505   0.40726
 Alpha virt. eigenvalues --    0.41159   0.41292   0.41390   0.41843   0.41845
 Alpha virt. eigenvalues --    0.42259   0.42698   0.42746   0.42990   0.43254
 Alpha virt. eigenvalues --    0.43457   0.43688   0.44223   0.44791   0.44957
 Alpha virt. eigenvalues --    0.44974   0.45786   0.46052   0.46197   0.46437
 Alpha virt. eigenvalues --    0.46917   0.47350   0.47558   0.47609   0.47924
 Alpha virt. eigenvalues --    0.48417   0.48915   0.49356   0.50080   0.50484
 Alpha virt. eigenvalues --    0.50953   0.51657   0.52497   0.53104   0.53851
 Alpha virt. eigenvalues --    0.54088   0.55166   0.55802   0.56290   0.56963
 Alpha virt. eigenvalues --    0.57878   0.58044   0.58524   0.59657   0.59846
 Alpha virt. eigenvalues --    0.60792   0.60928   0.61269   0.61837   0.61942
 Alpha virt. eigenvalues --    0.62583   0.62621   0.63107   0.63338   0.63461
 Alpha virt. eigenvalues --    0.63668   0.64649   0.65113   0.65686   0.65925
 Alpha virt. eigenvalues --    0.66389   0.66526   0.66743   0.67445   0.67742
 Alpha virt. eigenvalues --    0.67905   0.68456   0.68585   0.68686   0.69000
 Alpha virt. eigenvalues --    0.69637   0.69640   0.70162   0.70271   0.70577
 Alpha virt. eigenvalues --    0.71151   0.71179   0.71506   0.71784   0.72067
 Alpha virt. eigenvalues --    0.72423   0.72684   0.72781   0.73004   0.73369
 Alpha virt. eigenvalues --    0.73600   0.73837   0.74061   0.74494   0.75004
 Alpha virt. eigenvalues --    0.75121   0.75279   0.75622   0.76125   0.76442
 Alpha virt. eigenvalues --    0.76756   0.77226   0.77800   0.77954   0.78513
 Alpha virt. eigenvalues --    0.79319   0.79930   0.80538   0.80849   0.80991
 Alpha virt. eigenvalues --    0.81111   0.81849   0.82277   0.82287   0.82854
 Alpha virt. eigenvalues --    0.82925   0.83025   0.83776   0.83965   0.84282
 Alpha virt. eigenvalues --    0.84633   0.84691   0.85102   0.85686   0.85861
 Alpha virt. eigenvalues --    0.85964   0.86524   0.86774   0.86959   0.87219
 Alpha virt. eigenvalues --    0.87893   0.88184   0.88514   0.88729   0.88995
 Alpha virt. eigenvalues --    0.89395   0.89760   0.90226   0.90458   0.91120
 Alpha virt. eigenvalues --    0.91569   0.91812   0.91952   0.92214   0.92582
 Alpha virt. eigenvalues --    0.93118   0.93213   0.93640   0.93913   0.94538
 Alpha virt. eigenvalues --    0.94763   0.95262   0.95719   0.95960   0.96605
 Alpha virt. eigenvalues --    0.97004   0.97357   0.97876   0.98187   0.98944
 Alpha virt. eigenvalues --    0.99345   1.00052   1.00457   1.00968   1.01164
 Alpha virt. eigenvalues --    1.01418   1.01771   1.02269   1.03108   1.03415
 Alpha virt. eigenvalues --    1.03665   1.04289   1.04414   1.04804   1.05092
 Alpha virt. eigenvalues --    1.05454   1.05963   1.06261   1.07080   1.07175
 Alpha virt. eigenvalues --    1.07466   1.08192   1.08535   1.08918   1.09353
 Alpha virt. eigenvalues --    1.09918   1.10020   1.10470   1.11462   1.11549
 Alpha virt. eigenvalues --    1.12057   1.12563   1.12741   1.13093   1.13579
 Alpha virt. eigenvalues --    1.13712   1.14406   1.14920   1.15083   1.15933
 Alpha virt. eigenvalues --    1.16251   1.16864   1.17007   1.17126   1.17409
 Alpha virt. eigenvalues --    1.17829   1.18402   1.19694   1.19978   1.20510
 Alpha virt. eigenvalues --    1.20859   1.21391   1.21830   1.22200   1.22484
 Alpha virt. eigenvalues --    1.23254   1.23687   1.24643   1.25142   1.25269
 Alpha virt. eigenvalues --    1.25720   1.26044   1.26781   1.27762   1.28178
 Alpha virt. eigenvalues --    1.28814   1.29343   1.29617   1.30726   1.31336
 Alpha virt. eigenvalues --    1.32461   1.34238   1.36149   1.37203   1.38502
 Alpha virt. eigenvalues --    1.39692   1.40236   1.41241   1.42398   1.43505
 Alpha virt. eigenvalues --    1.44042   1.44412   1.45299   1.46141   1.47942
 Alpha virt. eigenvalues --    1.48578   1.50646   1.51560   1.52600   1.53296
 Alpha virt. eigenvalues --    1.54764   1.55264   1.56035   1.56517   1.56832
 Alpha virt. eigenvalues --    1.57177   1.57955   1.58162   1.58399   1.59115
 Alpha virt. eigenvalues --    1.59679   1.60840   1.61159   1.61802   1.62040
 Alpha virt. eigenvalues --    1.62095   1.62690   1.63499   1.63765   1.64191
 Alpha virt. eigenvalues --    1.64443   1.65307   1.65756   1.66004   1.66277
 Alpha virt. eigenvalues --    1.66503   1.66697   1.67477   1.67793   1.67972
 Alpha virt. eigenvalues --    1.68430   1.68701   1.69483   1.69724   1.70151
 Alpha virt. eigenvalues --    1.71064   1.71729   1.71973   1.72726   1.73557
 Alpha virt. eigenvalues --    1.73943   1.74698   1.75368   1.75597   1.75745
 Alpha virt. eigenvalues --    1.76274   1.76652   1.76847   1.77998   1.78678
 Alpha virt. eigenvalues --    1.78911   1.79415   1.80470   1.81193   1.81526
 Alpha virt. eigenvalues --    1.81907   1.82343   1.82738   1.83426   1.83582
 Alpha virt. eigenvalues --    1.83917   1.84613   1.85476   1.87150   1.87462
 Alpha virt. eigenvalues --    1.88026   1.88114   1.88244   1.88835   1.90275
 Alpha virt. eigenvalues --    1.91045   1.91613   1.92168   1.92423   1.93392
 Alpha virt. eigenvalues --    1.93601   1.93794   1.94535   1.95266   1.95633
 Alpha virt. eigenvalues --    1.95924   1.96350   1.96833   1.97638   1.98554
 Alpha virt. eigenvalues --    1.98761   1.99189   1.99793   2.00122   2.00526
 Alpha virt. eigenvalues --    2.01030   2.01923   2.02371   2.02863   2.03185
 Alpha virt. eigenvalues --    2.04019   2.04582   2.04698   2.05056   2.05394
 Alpha virt. eigenvalues --    2.05918   2.06157   2.06916   2.07175   2.07704
 Alpha virt. eigenvalues --    2.08663   2.08843   2.09039   2.10039   2.10706
 Alpha virt. eigenvalues --    2.11072   2.11641   2.12046   2.12826   2.13659
 Alpha virt. eigenvalues --    2.14362   2.14440   2.15088   2.15968   2.16702
 Alpha virt. eigenvalues --    2.17006   2.17818   2.18107   2.18741   2.19173
 Alpha virt. eigenvalues --    2.19694   2.19909   2.20806   2.22922   2.23376
 Alpha virt. eigenvalues --    2.23543   2.23853   2.25012   2.25530   2.25711
 Alpha virt. eigenvalues --    2.26437   2.28080   2.28741   2.30044   2.30715
 Alpha virt. eigenvalues --    2.31511   2.33008   2.33109   2.33418   2.36942
 Alpha virt. eigenvalues --    2.38448   2.39169   2.39947   2.41276   2.42108
 Alpha virt. eigenvalues --    2.42578   2.43167   2.43797   2.44350   2.45797
 Alpha virt. eigenvalues --    2.47790   2.48706   2.50263   2.50992   2.52476
 Alpha virt. eigenvalues --    2.53124   2.54077   2.54841   2.55308   2.56868
 Alpha virt. eigenvalues --    2.57235   2.57605   2.58792   2.59553   2.60174
 Alpha virt. eigenvalues --    2.60900   2.61644   2.62182   2.62381   2.63053
 Alpha virt. eigenvalues --    2.65867   2.67529   2.67755   2.69037   2.69920
 Alpha virt. eigenvalues --    2.70468   2.70931   2.72202   2.73279   2.73595
 Alpha virt. eigenvalues --    2.73834   2.75081   2.75302   2.75966   2.76398
 Alpha virt. eigenvalues --    2.76804   2.78071   2.78179   2.79741   2.80056
 Alpha virt. eigenvalues --    2.81034   2.81607   2.82180   2.82773   2.83518
 Alpha virt. eigenvalues --    2.83555   2.83924   2.84641   2.84668   2.84860
 Alpha virt. eigenvalues --    2.85438   2.86192   2.86747   2.87187   2.87340
 Alpha virt. eigenvalues --    2.87849   2.88730   2.89012   2.89639   2.89810
 Alpha virt. eigenvalues --    2.90450   2.90722   2.91165   2.91678   2.92271
 Alpha virt. eigenvalues --    2.92789   2.93477   2.93912   2.94229   2.95087
 Alpha virt. eigenvalues --    2.95748   2.96004   2.96215   2.96309   2.96939
 Alpha virt. eigenvalues --    2.97245   2.97765   2.98201   2.98408   2.99423
 Alpha virt. eigenvalues --    2.99792   3.00255   3.00861   3.01423   3.02234
 Alpha virt. eigenvalues --    3.02472   3.03835   3.04395   3.04590   3.06313
 Alpha virt. eigenvalues --    3.06402   3.07049   3.07420   3.07899   3.08744
 Alpha virt. eigenvalues --    3.09714   3.10340   3.12132   3.13194   3.14081
 Alpha virt. eigenvalues --    3.14772   3.17259   3.21125   3.21989   3.22602
 Alpha virt. eigenvalues --    3.23379   3.24237   3.24808   3.26716   3.28202
 Alpha virt. eigenvalues --    3.29881   3.32154   3.32372   3.33974   3.34812
 Alpha virt. eigenvalues --    3.35332   3.37298   3.38271   3.39052   3.40109
 Alpha virt. eigenvalues --    3.41002   3.46312   3.48390   3.48889   3.49704
 Alpha virt. eigenvalues --    3.51498   3.52251   3.53084   3.53332   3.55611
 Alpha virt. eigenvalues --    3.56321   3.56861   3.57708   3.59846   3.60841
 Alpha virt. eigenvalues --    3.62640   3.64072   3.65277   3.66046   3.66739
 Alpha virt. eigenvalues --    3.67034   3.67132   3.69155   3.70942   3.71574
 Alpha virt. eigenvalues --    3.72883   3.74161   3.74863   3.75284   3.80420
 Alpha virt. eigenvalues --    3.84801   3.86245   3.88436   3.91783   3.93100
 Alpha virt. eigenvalues --    3.94932   3.96543   3.96846   4.02699   4.07626
 Alpha virt. eigenvalues --    4.10963   4.12098   4.12784   4.14773   4.15356
 Alpha virt. eigenvalues --    4.18516   4.19211   4.19990   4.21411   4.21894
 Alpha virt. eigenvalues --    4.24294   4.28000   4.28723   4.29686   4.32032
 Alpha virt. eigenvalues --    4.35290   4.39825   4.42752   4.49180   4.49611
 Alpha virt. eigenvalues --    4.72497   4.93690   4.94344   4.95591   4.96050
 Alpha virt. eigenvalues --    4.96566   4.98623   5.00682   5.17115   5.23586
 Alpha virt. eigenvalues --    5.67449   6.18098  14.90997  23.62259  23.77154
 Alpha virt. eigenvalues --   23.84406  23.85436  23.95125  24.00590  24.05476
 Alpha virt. eigenvalues --   24.08361  24.09805  24.10082  24.11150  24.12343
 Alpha virt. eigenvalues --   24.13092  24.13377  24.13987  24.14675  24.16363
 Alpha virt. eigenvalues --   24.17415  24.18788  24.20899  24.21340  24.22230
 Alpha virt. eigenvalues --   24.22524  24.24076  24.24300  24.25866  24.31850
 Alpha virt. eigenvalues --   24.32184  24.33193  24.33427  24.34113  24.34445
 Alpha virt. eigenvalues --   35.76874  50.18690
          Condensed to atoms (all electrons):
 Mulliken charges:
               1
     1  C    0.022731
     2  C   -0.288286
     3  C   -0.286347
     4  C    0.070698
     5  C    0.066434
     6  C   -0.113001
     7  H    0.242462
     8  H    0.226490
     9  C   -0.054159
    10  O    0.160534
    11  C    0.114018
    12  C   -0.105025
    13  C    0.339556
    14  C   -0.335114
    15  C   -0.404099
    16  C   -0.278302
    17  H    0.201942
    18  H    0.204089
    19  B   -0.015332
    20  N    0.469206
    21  C   -0.259213
    22  H    0.177135
    23  H    0.172617
    24  H    0.192215
    25  C   -0.346491
    26  H    0.165229
    27  H    0.161410
    28  H    0.166912
    29  C   -0.397301
    30  H    0.186787
    31  C   -0.391714
    32  H    0.194469
    33  C    0.145298
    34  C   -0.241152
    35  C   -0.432155
    36  H    0.199314
    37  H    0.197288
    38  C    0.435609
    39  C   -0.226309
    40  C    0.200678
    41  C   -0.483541
    42  H    0.214096
    43  C   -0.312940
    44  H    0.224909
    45  C   -0.510583
    46  H    0.249835
    47  H    0.244937
    48  H    0.216569
    49  C    0.252793
    50  C   -0.351759
    51  C    0.079243
    52  C   -0.502317
    53  H    0.218508
    54  C   -0.595200
    55  H    0.209531
    56  C   -0.384241
    57  H    0.235766
    58  H    0.239476
    59  H    0.215798
 Sum of Mulliken charges =  -0.00000
 Mulliken charges with hydrogens summed into heavy atoms:
               1
     1  C    0.022731
     2  C   -0.045824
     3  C   -0.059858
     4  C    0.070698
     5  C    0.066434
     6  C   -0.113001
     9  C   -0.054159
    10  O    0.160534
    11  C    0.114018
    12  C   -0.105025
    13  C    0.339556
    14  C   -0.335114
    15  C   -0.202157
    16  C   -0.074213
    19  B   -0.015332
    20  N    0.469206
    21  C    0.282755
    25  C    0.147061
    29  C   -0.210514
    31  C   -0.197245
    33  C    0.145298
    34  C   -0.041838
    35  C   -0.234867
    38  C    0.435609
    39  C   -0.012214
    40  C    0.425587
    41  C   -0.233707
    43  C   -0.068004
    45  C   -0.294014
    49  C    0.252793
    50  C   -0.133252
    51  C    0.288774
    52  C   -0.266551
    54  C   -0.355723
    56  C   -0.168443
 Electronic spatial extent (au):  <R**2>=          30039.9233
 Charge=             -0.0000 electrons
 Dipole moment (field-independent basis, Debye):
    X=             -0.9074    Y=              0.1773    Z=             -0.7588  Tot=              1.1961
 Quadrupole moment (field-independent basis, Debye-Ang):
   XX=           -185.1714   YY=           -192.0506   ZZ=           -181.8660
   XY=             10.2885   XZ=              6.4602   YZ=             -3.6196
 Traceless Quadrupole moment (field-independent basis, Debye-Ang):
   XX=              1.1913   YY=             -5.6879   ZZ=              4.4966
   XY=             10.2885   XZ=              6.4602   YZ=             -3.6196
 Octapole moment (field-independent basis, Debye-Ang**2):
  XXX=           2003.3413  YYY=          -1366.8923  ZZZ=           -160.5108  XYY=            755.5361
  XXY=           -510.5989  XXZ=           -106.4786  XZZ=            606.6919  YZZ=           -434.1959
  YYZ=           -102.6841  XYZ=             22.3588
 Hexadecapole moment (field-independent basis, Debye-Ang**3):
 XXXX=         -18210.8710 YYYY=         -13714.7514 ZZZZ=          -8517.4847 XXXY=           3639.3378
 XXXZ=            859.7121 YYYX=           3915.9172 YYYZ=            843.0028 ZZZX=            274.0732
 ZZZY=           1034.9359 XXYY=          -5621.7784 XXZZ=          -4211.7627 YYZZ=          -3536.5053
 XXYZ=            345.7125 YYXZ=            245.6778 ZZXY=           1009.8343
 N-N= 3.474839752783D+03 E-N=-1.017618844517D+04  KE= 1.382774585454D+03
 Breneman (CHELPG) radii used.
 Generate Potential Derived Charges using the Breneman model, NDens= 1.
 Grid spacing= 0.300 Box extension= 2.800
 NStep X,Y,Z=   47     52     60   Total possible points=      146640
 Number of Points to Fit=   30365

 **********************************************************************

            Electrostatic Properties Using The SCF Density.

 **********************************************************************

       Atomic Center    1 is at  -2.646641  2.233743  1.799525
       Atomic Center    2 is at  -1.602503  2.623658  2.681356
       Atomic Center    3 is at  -0.756082  3.672691  2.421119
       Atomic Center    4 is at  -0.910707  4.429478  1.238436
       Atomic Center    5 is at  -1.955609  4.091251  0.355571
       Atomic Center    6 is at  -2.805150  3.008777  0.659268
       Atomic Center    7 is at  -1.463663  2.049308  3.591379
       Atomic Center    8 is at   0.037914  3.925058  3.115390
       Atomic Center    9 is at  -2.136033  4.810703 -0.858899
       Atomic Center   10 is at  -3.849677  2.714932 -0.163022
       Atomic Center   11 is at  -3.183820  4.405712 -1.736481
       Atomic Center   12 is at  -4.018398  3.343848 -1.363129
       Atomic Center   13 is at  -3.351057  5.045387 -2.982574
       Atomic Center   14 is at  -5.039721  2.886696 -2.191682
       Atomic Center   15 is at  -4.369370  4.576867 -3.829587
       Atomic Center   16 is at  -5.183006  3.535519 -3.438053
       Atomic Center   17 is at  -4.520237  5.045600 -4.795971
       Atomic Center   18 is at  -5.966131  3.204856 -4.109052
       Atomic Center   19 is at  -3.514138  0.962278  2.095736
       Atomic Center   20 is at  -5.842896  1.806049 -1.791843
       Atomic Center   21 is at  -6.667548  2.023667 -0.611199
       Atomic Center   22 is at  -7.506569  2.707515 -0.819845
       Atomic Center   23 is at  -7.071489  1.064372 -0.282144
       Atomic Center   24 is at  -6.071036  2.430803  0.202705
       Atomic Center   25 is at  -6.547294  1.089924 -2.833504
       Atomic Center   26 is at  -6.905255  0.145396 -2.417353
       Atomic Center   27 is at  -7.417829  1.637273 -3.233794
       Atomic Center   28 is at  -5.868981  0.858782 -3.657078
       Atomic Center   29 is at  -2.468675  6.127159 -3.307293
       Atomic Center   30 is at  -2.599600  6.631298 -4.259154
       Atomic Center   31 is at  -1.486603  6.521427 -2.453858
       Atomic Center   32 is at  -0.829829  7.343082 -2.720219
       Atomic Center   33 is at  -1.285790  5.859465 -1.199454
       Atomic Center   34 is at  -0.244575  6.206401 -0.285771
       Atomic Center   35 is at  -0.064035  5.524371  0.879766
       Atomic Center   36 is at   0.417022  7.028484 -0.539759
       Atomic Center   37 is at   0.738709  5.801133  1.554898
       Atomic Center   38 is at  -3.938872  0.663489  3.574163
       Atomic Center   39 is at  -4.074299 -0.650512  4.050022
       Atomic Center   40 is at  -4.199548  1.707981  4.475889
       Atomic Center   41 is at  -4.440800 -0.910754  5.364667
       Atomic Center   42 is at  -3.876534 -1.481305  3.380536
       Atomic Center   43 is at  -4.595601  1.455686  5.783258
       Atomic Center   44 is at  -4.097645  2.735774  4.141715
       Atomic Center   45 is at  -4.710288  0.143557  6.231380
       Atomic Center   46 is at  -4.522848 -1.934515  5.713148
       Atomic Center   47 is at  -4.806582  2.279841  6.455927
       Atomic Center   48 is at  -5.007391 -0.056975  7.255178
       Atomic Center   49 is at  -3.912697 -0.018519  0.941721
       Atomic Center   50 is at  -3.085614 -0.197611 -0.177752
       Atomic Center   51 is at  -5.122161 -0.726348  0.970293
       Atomic Center   52 is at  -3.443042 -1.044570 -1.215793
       Atomic Center   53 is at  -2.145911  0.343373 -0.235337
       Atomic Center   54 is at  -5.502990 -1.553546 -0.080091
       Atomic Center   55 is at  -5.788693 -0.609070  1.819033
       Atomic Center   56 is at  -4.660585 -1.717548 -1.173001
       Atomic Center   57 is at  -2.782746 -1.169783 -2.067033
       Atomic Center   58 is at  -6.454125 -2.074332 -0.043552
       Atomic Center   59 is at  -4.951306 -2.367784 -1.991400
   30365 points will be used for fitting atomic charges
 Fitting point charges to electrostatic potential
 Charges from ESP fit, RMS=   0.00478 RRMS=   0.43229:
 ESP charges:
               1
     1  C   -0.312172
     2  C    0.085027
     3  C   -0.367048
     4  C    0.253424
     5  C   -0.157007
     6  C    0.333145
     7  H    0.023855
     8  H    0.159159
     9  C    0.079360
    10  O   -0.169504
    11  C   -0.095489
    12  C    0.126175
    13  C    0.202116
    14  C    0.091837
    15  C   -0.317025
    16  C   -0.105874
    17  H    0.148035
    18  H    0.133391
    19  B    0.456238
    20  N   -0.192693
    21  C    0.107910
    22  H   -0.009357
    23  H    0.022630
    24  H   -0.048056
    25  C   -0.145991
    26  H    0.093660
    27  H    0.047942
    28  H    0.065606
    29  C   -0.222478
    30  H    0.137883
    31  C   -0.194166
    32  H    0.131682
    33  C    0.096893
    34  C   -0.165485
    35  C   -0.242191
    36  H    0.132970
    37  H    0.137959
    38  C   -0.209934
    39  C    0.079418
    40  C    0.069959
    41  C   -0.161617
    42  H   -0.022521
    43  C   -0.177848
    44  H    0.006047
    45  C   -0.048243
    46  H    0.109505
    47  H    0.112025
    48  H    0.086904
    49  C   -0.210312
    50  C   -0.040109
    51  C    0.142934
    52  C   -0.132957
    53  H    0.028550
    54  C   -0.163928
    55  H   -0.016533
    56  C   -0.065738
    57  H    0.104311
    58  H    0.099547
    59  H    0.088177
 Sum of ESP charges =   0.00000
 ESP charges with hydrogens summed into heavy atoms:
               1
     1  C   -0.312172
     2  C    0.108882
     3  C   -0.207889
     4  C    0.253424
     5  C   -0.157007
     6  C    0.333145
     9  C    0.079360
    10  O   -0.169504
    11  C   -0.095489
    12  C    0.126175
    13  C    0.202116
    14  C    0.091837
    15  C   -0.168990
    16  C    0.027517
    19  B    0.456238
    20  N   -0.192693
    21  C    0.073127
    25  C    0.061217
    29  C   -0.084595
    31  C   -0.062485
    33  C    0.096893
    34  C   -0.032514
    35  C   -0.104232
    38  C   -0.209934
    39  C    0.056897
    40  C    0.076007
    41  C   -0.052112
    43  C   -0.065823
    45  C    0.038660
    49  C   -0.210312
    50  C   -0.011558
    51  C    0.126400
    52  C   -0.028646
    54  C   -0.064381
    56  C    0.022440
 Charge=   0.00000 Dipole=    -0.8028     0.2703    -0.7850 Tot=     1.1549
 -----------------------------------------------------------------

              Electrostatic Properties (Atomic Units)

 -----------------------------------------------------------------
    Center     Electric         -------- Electric Field --------
               Potential          X             Y             Z
 -----------------------------------------------------------------
    1 Atom    -14.791125
    2 Atom    -14.771269
    3 Atom    -14.778697
    4 Atom    -14.756896
    5 Atom    -14.759425
    6 Atom    -14.698802
    7 Atom     -1.111498
    8 Atom     -1.104663
    9 Atom    -14.758090
   10 Atom    -22.310259
   11 Atom    -14.760138
   12 Atom    -14.708103
   13 Atom    -14.763443
   14 Atom    -14.735787
   15 Atom    -14.774726
   16 Atom    -14.770858
   17 Atom     -1.102154
   18 Atom     -1.098795
   19 Atom    -11.470957
   20 Atom    -18.386345
   21 Atom    -14.760097
   22 Atom     -1.128441
   23 Atom     -1.123101
   24 Atom     -1.125382
   25 Atom    -14.752207
   26 Atom     -1.116016
   27 Atom     -1.119377
   28 Atom     -1.114151
   29 Atom    -14.770309
   30 Atom     -1.100262
   31 Atom    -14.770064
   32 Atom     -1.099368
   33 Atom    -14.762557
   34 Atom    -14.765264
   35 Atom    -14.768887
   36 Atom     -1.096362
   37 Atom     -1.098573
   38 Atom    -14.792691
   39 Atom    -14.775961
   40 Atom    -14.775630
   41 Atom    -14.775669
   42 Atom     -1.114173
   43 Atom    -14.775632
   44 Atom     -1.113335
   45 Atom    -14.770624
   46 Atom     -1.105892
   47 Atom     -1.105794
   48 Atom     -1.102477
   49 Atom    -14.797281
   50 Atom    -14.782015
   51 Atom    -14.778862
   52 Atom    -14.781769
   53 Atom     -1.119688
   54 Atom    -14.778276
   55 Atom     -1.115688
   56 Atom    -14.774604
   57 Atom     -1.112225
   58 Atom     -1.107091
   59 Atom     -1.105850
 -----------------------------------------------------------------
 Unable to Open any file for archive entry.
 1\1\GINC-IRENE4137\SP\RwB97XD\GenECP\C32H24B1N1O1\PENASFRA\11-Apr-2024
 \0\\# wb97xd/genecp scrf=(solvent=toluene,pcm) nosymm pop=(chelpg) scf
 cyc=300\\ph_naphtoxanthene_chelpg\\0,1\C,0,-2.646641,2.233743,1.799525
 \C,0,-1.602503,2.623658,2.681356\C,0,-0.756082,3.672691,2.421119\C,0,-
 0.910707,4.429478,1.238436\C,0,-1.955609,4.091251,0.355571\C,0,-2.8051
 5,3.008777,0.659268\H,0,-1.463663,2.049308,3.591379\H,0,0.037914,3.925
 058,3.11539\C,0,-2.136033,4.810703,-0.858899\O,0,-3.849677,2.714932,-0
 .163022\C,0,-3.18382,4.405712,-1.736481\C,0,-4.018398,3.343848,-1.3631
 29\C,0,-3.351057,5.045387,-2.982574\C,0,-5.039721,2.886696,-2.191682\C
 ,0,-4.36937,4.576867,-3.829587\C,0,-5.183006,3.535519,-3.438053\H,0,-4
 .520237,5.0456,-4.795971\H,0,-5.966131,3.204856,-4.109052\B,0,-3.51413
 8,0.962278,2.095736\N,0,-5.842896,1.806049,-1.791843\C,0,-6.667548,2.0
 23667,-0.611199\H,0,-7.506569,2.707515,-0.819845\H,0,-7.071489,1.06437
 2,-0.282144\H,0,-6.071036,2.430803,0.202705\C,0,-6.547294,1.089924,-2.
 833504\H,0,-6.905255,0.145396,-2.417353\H,0,-7.417829,1.637273,-3.2337
 94\H,0,-5.868981,0.858782,-3.657078\C,0,-2.468675,6.127159,-3.307293\H
 ,0,-2.5996,6.631298,-4.259154\C,0,-1.486603,6.521427,-2.453858\H,0,-0.
 829829,7.343082,-2.720219\C,0,-1.28579,5.859465,-1.199454\C,0,-0.24457
 5,6.206401,-0.285771\C,0,-0.064035,5.524371,0.879766\H,0,0.417022,7.02
 8484,-0.539759\H,0,0.738709,5.801133,1.554898\C,0,-3.938872,0.663489,3
 .574163\C,0,-4.074299,-0.650512,4.050022\C,0,-4.199548,1.707981,4.4758
 89\C,0,-4.4408,-0.910754,5.364667\H,0,-3.876534,-1.481305,3.380536\C,0
 ,-4.595601,1.455686,5.783258\H,0,-4.097645,2.735774,4.141715\C,0,-4.71
 0288,0.143557,6.23138\H,0,-4.522848,-1.934515,5.713148\H,0,-4.806582,2
 .279841,6.455927\H,0,-5.007391,-0.056975,7.255178\C,0,-3.912697,-0.018
 519,0.941721\C,0,-3.085614,-0.197611,-0.177752\C,0,-5.122161,-0.726348
 ,0.970293\C,0,-3.443042,-1.04457,-1.215793\H,0,-2.145911,0.343373,-0.2
 35337\C,0,-5.50299,-1.553546,-0.080091\H,0,-5.788693,-0.60907,1.819033
 \C,0,-4.660585,-1.717548,-1.173001\H,0,-2.782746,-1.169783,-2.067033\H
 ,0,-6.454125,-2.074332,-0.043552\H,0,-4.951306,-2.367784,-1.9914\\Vers
 ion=AS64L-G16RevC.02\HF=-1388.6069613\RMSD=8.739e-09\Dipole=-0.3569963
 ,0.0697714,-0.2985443\Quadrupole=0.885688,-4.2288307,3.3431427,7.64923
 26,4.8029694,-2.6910623\PG=C01 [X(C32H24B1N1O1)]\\@
 The archive entry for this job was punched.


 THE PROBLEM WITH THE LADDER OF SUCCESS IS YOU CAN'T
 CLIMB IT WHILE YOU'RE TWIDDLING YOUR THUMBS.
 Job cpu time:       0 days  8 hours 14 minutes 23.7 seconds.
 Elapsed time:       0 days  0 hours  4 minutes 30.1 seconds.
 File lengths (MBytes):  RWF=    716 Int=      0 D2E=      0 Chk=     53 Scr=      1
 Normal termination of Gaussian 16 at Thu Apr 11 14:27:39 2024.
