 Entering Gaussian System, Link 0=/ccc/products/gaussian-16-C.02/system/default/g16/g16
 Input=tbu_dimethylaniline_chelpg.gjf
 Output=tbu_dimethylaniline_chelpg.log
 Initial command:
 /ccc/products/gaussian-16-C.02/system/default/g16/l1.exe "/ccc/scratch/cont003/gen7343/penasfra/flp/b-n_flp/tbu_dimethylaniline/Reactant/Gau-2128634.inp" -scrdir="/ccc/scratch/cont003/gen7343/penasfra/flp/b-n_flp/tbu_dimethylaniline/Reactant/"
 Entering Link 1 = /ccc/products/gaussian-16-C.02/system/default/g16/l1.exe PID=   2128684.
  
 Copyright (c) 1988-2021, Gaussian, Inc.  All Rights Reserved.
  
 This is part of the Gaussian(R) 16 program.  It is based on
 the Gaussian(R) 09 system (copyright 2009, Gaussian, Inc.),
 the Gaussian(R) 03 system (copyright 2003, Gaussian, Inc.),
 the Gaussian(R) 98 system (copyright 1998, Gaussian, Inc.),
 the Gaussian(R) 94 system (copyright 1995, Gaussian, Inc.),
 the Gaussian 92(TM) system (copyright 1992, Gaussian, Inc.),
 the Gaussian 90(TM) system (copyright 1990, Gaussian, Inc.),
 the Gaussian 88(TM) system (copyright 1988, Gaussian, Inc.),
 the Gaussian 86(TM) system (copyright 1986, Carnegie Mellon
 University), and the Gaussian 82(TM) system (copyright 1983,
 Carnegie Mellon University). Gaussian is a federally registered
 trademark of Gaussian, Inc.
  
 This software contains proprietary and confidential information,
 including trade secrets, belonging to Gaussian, Inc.
  
 This software is provided under written license and may be
 used, copied, transmitted, or stored only in accord with that
 written license.
  
 The following legend is applicable only to US Government
 contracts under FAR:
  
                    RESTRICTED RIGHTS LEGEND
  
 Use, reproduction and disclosure by the US Government is
 subject to restrictions as set forth in subparagraphs (a)
 and (c) of the Commercial Computer Software - Restricted
 Rights clause in FAR 52.227-19.
  
 Gaussian, Inc.
 340 Quinnipiac St., Bldg. 40, Wallingford CT 06492
  
  
 ---------------------------------------------------------------
 Warning -- This program may not be used in any manner that
 competes with the business of Gaussian, Inc. or will provide
 assistance to any competitor of Gaussian, Inc.  The licensee
 of this program is prohibited from giving any competitor of
 Gaussian, Inc. access to this program.  By using this program,
 the user acknowledges that Gaussian, Inc. is engaged in the
 business of creating and licensing software in the field of
 computational chemistry and represents and warrants to the
 licensee that it is not a competitor of Gaussian, Inc. and that
 it will not use this program in any manner prohibited above.
 ---------------------------------------------------------------
  

 Cite this work as:
 Gaussian 16, Revision C.02,
 M. J. Frisch, G. W. Trucks, H. B. Schlegel, G. E. Scuseria, 
 M. A. Robb, J. R. Cheeseman, G. Scalmani, V. Barone, 
 G. A. Petersson, H. Nakatsuji, X. Li, M. Caricato, A. V. Marenich, 
 J. Bloino, B. G. Janesko, R. Gomperts, B. Mennucci, H. P. Hratchian, 
 J. V. Ortiz, A. F. Izmaylov, J. L. Sonnenberg, D. Williams-Young, 
 F. Ding, F. Lipparini, F. Egidi, J. Goings, B. Peng, A. Petrone, 
 T. Henderson, D. Ranasinghe, V. G. Zakrzewski, J. Gao, N. Rega, 
 G. Zheng, W. Liang, M. Hada, M. Ehara, K. Toyota, R. Fukuda, 
 J. Hasegawa, M. Ishida, T. Nakajima, Y. Honda, O. Kitao, H. Nakai, 
 T. Vreven, K. Throssell, J. A. Montgomery, Jr., J. E. Peralta, 
 F. Ogliaro, M. J. Bearpark, J. J. Heyd, E. N. Brothers, K. N. Kudin, 
 V. N. Staroverov, T. A. Keith, R. Kobayashi, J. Normand, 
 K. Raghavachari, A. P. Rendell, J. C. Burant, S. S. Iyengar, 
 J. Tomasi, M. Cossi, J. M. Millam, M. Klene, C. Adamo, R. Cammi, 
 J. W. Ochterski, R. L. Martin, K. Morokuma, O. Farkas, 
 J. B. Foresman, and D. J. Fox, Gaussian, Inc., Wallingford CT, 2019.
 
 ******************************************
 Gaussian 16:  AS64L-G16RevC.02  7-Dec-2021
                10-Apr-2024 
 ******************************************
 %nprocshared=128
 Will use up to  128 processors via shared memory.
 %mem=30GB
 %chk=tbu_dimethylaniline_chelpg.chk
 ----------------------------------------------------------------------
 # wb97xd/genecp scrf=(solvent=toluene,pcm) nosymm pop=(chelpg) scfcyc=
 300
 ----------------------------------------------------------------------
 1/38=1,172=1/1;
 2/12=2,15=1,17=6,18=5,40=1/2;
 3/5=7,11=2,16=1,17=8,25=1,30=1,70=2201,72=13,74=-58/1,2,3;
 4//1;
 5/5=2,7=300,38=5,53=13/2;
 6/7=2,8=2,9=2,10=2,15=8,20=3,28=1/1,2;
 99/5=1,9=1/99;
 --------------------------
 tbu_dimethylaniline_chelpg
 --------------------------
 Symbolic Z-matrix:
 Charge =  0 Multiplicity = 1
 C                    -0.70372   0.88756   0.2505 
 C                     0.68316   0.95383   0.34894 
 C                     1.39113   2.14663   0.18495 
 C                     0.6516    3.32307  -0.06168 
 C                    -0.74289   3.25895  -0.13686 
 C                    -1.4155    2.05007   0.00649 
 H                    -1.21439  -0.06199   0.36378 
 H                     1.22756   0.0322    0.5302 
 H                    -1.32032   4.1579   -0.31113 
 H                    -2.49747   2.02839  -0.06595 
 N                     1.33904   4.54315  -0.27816 
 B                     2.97198   2.04925   0.16458 
 C                     2.18563   5.00542   0.80862 
 H                     2.88137   4.22997   1.12757 
 H                     2.78473   5.8518    0.46518 
 H                     1.60267   5.32184   1.68833 
 C                     0.58623   5.62998  -0.87157 
 H                     0.05624   5.27972  -1.75901 
 H                    -0.14371   6.08646  -0.18233 
 H                     1.28543   6.40998  -1.18151 
 C                     3.7047    2.19871  -1.26719 
 C                     4.41702   3.56954  -1.35491 
 C                     4.75388   1.09641  -1.51834 
 C                     2.69654   2.13354  -2.43064 
 H                     3.69513   4.38708  -1.31186 
 H                     5.15732   3.71533  -0.56602 
 H                     4.94126   3.63714  -2.31609 
 H                     4.30842   0.09717  -1.48749 
 H                     5.18553   1.22915  -2.51747 
 H                     5.57804   1.12211  -0.80302 
 H                     3.22353   2.22151  -3.38852 
 H                     2.14679   1.18738  -2.437 
 H                     1.96683   2.94364  -2.37162 
 C                     3.71684   1.68142   1.55305 
 C                     2.84446   1.97591   2.79021 
 C                     3.99009   0.15468   1.55735 
 C                     5.06386   2.40087   1.75568 
 H                     2.59586   3.03699   2.87979 
 H                     1.90333   1.42277   2.76543 
 H                     3.38114   1.68692   3.70162 
 H                     4.68721  -0.15169   0.77755 
 H                     4.42957  -0.12215   2.52292 
 H                     3.07471  -0.43259   1.44487 
 H                     5.51186   2.08181   2.70425 
 H                     5.7833    2.18217   0.96492 
 H                     4.94192   3.48769   1.80502 
 
                          Input orientation:                          
 ---------------------------------------------------------------------
 Center     Atomic      Atomic             Coordinates (Angstroms)
 Number     Number       Type             X           Y           Z
 ---------------------------------------------------------------------
      1          6           0       -0.703724    0.887561    0.250498
      2          6           0        0.683158    0.953826    0.348938
      3          6           0        1.391131    2.146627    0.184953
      4          6           0        0.651598    3.323073   -0.061675
      5          6           0       -0.742894    3.258948   -0.136858
      6          6           0       -1.415497    2.050067    0.006490
      7          1           0       -1.214385   -0.061994    0.363782
      8          1           0        1.227561    0.032201    0.530200
      9          1           0       -1.320316    4.157902   -0.311133
     10          1           0       -2.497474    2.028394   -0.065946
     11          7           0        1.339041    4.543154   -0.278155
     12          5           0        2.971975    2.049251    0.164581
     13          6           0        2.185626    5.005415    0.808617
     14          1           0        2.881368    4.229970    1.127565
     15          1           0        2.784725    5.851802    0.465183
     16          1           0        1.602670    5.321839    1.688329
     17          6           0        0.586225    5.629978   -0.871567
     18          1           0        0.056239    5.279719   -1.759010
     19          1           0       -0.143705    6.086461   -0.182331
     20          1           0        1.285430    6.409982   -1.181512
     21          6           0        3.704701    2.198711   -1.267193
     22          6           0        4.417023    3.569543   -1.354906
     23          6           0        4.753876    1.096408   -1.518344
     24          6           0        2.696544    2.133542   -2.430640
     25          1           0        3.695133    4.387082   -1.311861
     26          1           0        5.157322    3.715325   -0.566015
     27          1           0        4.941258    3.637144   -2.316085
     28          1           0        4.308421    0.097169   -1.487488
     29          1           0        5.185529    1.229148   -2.517467
     30          1           0        5.578042    1.122107   -0.803023
     31          1           0        3.223531    2.221511   -3.388515
     32          1           0        2.146794    1.187376   -2.436998
     33          1           0        1.966826    2.943641   -2.371616
     34          6           0        3.716835    1.681422    1.553053
     35          6           0        2.844457    1.975908    2.790213
     36          6           0        3.990091    0.154681    1.557350
     37          6           0        5.063862    2.400867    1.755679
     38          1           0        2.595861    3.036992    2.879786
     39          1           0        1.903327    1.422769    2.765428
     40          1           0        3.381144    1.686919    3.701624
     41          1           0        4.687206   -0.151687    0.777545
     42          1           0        4.429573   -0.122148    2.522923
     43          1           0        3.074712   -0.432594    1.444874
     44          1           0        5.511856    2.081808    2.704254
     45          1           0        5.783303    2.182171    0.964918
     46          1           0        4.941923    3.487693    1.805017
 ---------------------------------------------------------------------
                    Distance matrix (angstroms):
                    1          2          3          4          5
     1  C    0.000000
     2  C    1.391949   0.000000
     3  C    2.444987   1.396743   0.000000
     4  C    2.804651   2.404772   1.411297   0.000000
     5  C    2.403134   2.753763   2.427938   1.397989   0.000000
     6  C    1.384767   2.392356   2.813953   2.428595   1.390804
     7  H    1.084095   2.152389   3.420336   3.888648   3.391401
     8  H    2.130666   1.085644   2.148662   3.392917   3.839213
     9  H    3.375018   3.836105   3.412224   2.155832   1.082546
    10  H    2.149227   3.382787   3.898484   3.404830   2.144258
    11  N    4.220868   3.702257   2.441418   1.417053   2.450225
    12  B    3.855862   2.544136   1.583971   2.656683   3.918480
    13  C    5.061281   4.345583   3.031971   2.437401   3.538404
    14  H    4.979340   4.021381   2.729403   2.684889   3.959410
    15  H    6.071166   5.331066   3.968495   3.349967   4.419213
    16  H    5.200926   4.660366   3.519497   2.821722   3.617803
    17  C    5.041182   4.833780   3.727981   2.445815   2.815695
    18  H    4.889450   4.852816   3.921377   2.657793   2.711735
    19  H    5.246858   5.225887   4.244162   2.878086   2.890662
    20  H    6.041897   5.698653   4.478236   3.344366   3.890298
    21  C    4.843213   3.645729   2.732041   3.469712   4.709868
    22  C    5.999367   4.866909   3.681288   3.988937   5.310824
    23  C    5.740890   4.480828   3.913085   4.889643   6.066264
    24  C    4.505862   3.629257   2.923286   3.347952   4.284590
    25  H    5.834171   4.859783   3.545210   3.458061   4.727515
    26  H    6.558567   5.336774   4.148368   4.550799   5.933381
    27  H    6.783316   5.695082   4.591322   4.856149   6.099315
    28  H    5.363480   4.153174   3.938009   5.080527   6.110387
    29  H    6.516258   5.344476   4.747873   5.565246   6.703252
    30  H    6.373814   5.031423   4.422212   5.446439   6.705527
    31  H    5.517714   4.693514   4.016587   4.346969   5.232789
    32  H    3.929119   3.155664   2.892372   3.526893   4.234661
    33  H    4.270221   3.606741   2.739106   2.685074   3.526492
    34  C    4.676345   3.344022   2.738067   3.833803   5.023303
    35  C    4.497137   3.416971   2.988090   3.841451   4.804480
    36  C    4.927157   3.610360   3.550481   4.879087   5.908296
    37  C    6.149855   4.823216   4.002596   4.860176   6.167367
    38  H    4.735026   3.795155   3.083221   3.537541   4.505185
    39  H    3.661698   2.747389   2.728583   3.629117   4.335586
    40  H    5.406976   4.365439   4.066750   4.928472   5.849180
    41  H    5.515428   4.175915   4.061714   5.391139   6.477233
    42  H    5.703873   4.463133   4.454837   5.729118   6.727604
    43  H    4.176832   2.973679   3.327796   4.716588   5.541072
    44  H    6.788268   5.489643   4.830264   5.728282   6.969898
    45  H    6.653415   5.282021   4.461029   5.356300   6.705565
    46  H    6.407070   5.165049   4.126886   4.681723   6.011684
                    6          7          8          9         10
     6  C    0.000000
     7  H    2.151489   0.000000
     8  H    3.366276   2.449422   0.000000
     9  H    2.133755   4.274840   4.921476   0.000000
    10  H    1.084616   2.490122   4.268028   2.445531   0.000000
    11  N    3.726122   5.304664   4.584164   2.687320   4.592156
    12  B    4.390319   4.692829   2.691681   4.805879   5.474345
    13  C    4.727111   6.118545   5.072303   3.776738   5.617734
    14  H    4.946902   5.981598   4.551174   4.441756   5.933241
    15  H    5.683789   7.139758   6.024678   4.508140   6.542337
    16  H    4.758404   6.218994   5.427913   3.727794   5.543955
    17  C    4.194477   6.096460   5.806149   2.473053   4.809328
    18  H    3.964045   5.886818   5.843708   2.291228   4.467553
    19  H    4.236223   6.264830   6.248371   2.262818   4.692726
    20  H    5.264524   7.107987   6.603741   3.552370   5.895181
    21  C    5.278332   5.654049   3.749748   5.477525   6.319729
    22  C    6.179037   6.917710   5.122410   5.861117   7.200474
    23  C    6.426177   6.364309   4.214732   6.908394   7.453867
    24  C    4.780738   5.284367   3.916646   4.972475   5.707947
    25  H    5.772194   6.834137   5.333581   5.119444   6.742707
    26  H    6.804616   7.465341   5.496373   6.497741   7.854407
    27  H    6.951367   7.665328   5.906649   6.595326   7.936368
    28  H    6.229688   5.826999   3.683339   7.039605   7.215997
    29  H    7.114620   7.136354   5.136776   7.468034   8.104152
    30  H    7.101127   6.992896   4.678896   7.552837   8.159571
    31  H    5.751177   6.244135   4.912566   5.819488   6.618660
    32  H    4.405086   4.550035   3.314164   5.036286   5.281896
    33  H    4.230127   5.161041   4.176545   4.065135   5.107227
    34  C    5.372950   5.363841   3.156366   5.914477   6.431111
    35  C    5.089383   5.149253   3.391166   5.632475   6.057774
    36  C    5.934479   5.343980   2.949849   6.907780   6.945098
    37  C    6.720477   6.886178   4.672214   6.936614   7.786582
    38  H    5.031982   5.518330   4.052353   5.174442   5.969646
    39  H    4.361174   4.206252   2.717827   5.228581   5.267875
    40  H    6.065777   5.942960   4.175397   6.656704   6.990661
    41  H    6.533393   5.916758   3.473347   7.473158   7.555386
    42  H    6.724269   6.043159   3.774606   7.707913   7.701367
    43  H    5.328652   4.438745   2.112967   6.593367   6.276010
    44  H    7.434188   7.437474   5.223273   7.751213   8.475036
    45  H    7.263522   7.373281   5.056297   7.482862   8.346113
    46  H    6.761528   7.251039   5.230876   6.644013   7.808629
                   11         12         13         14         15
    11  N    0.000000
    12  B    3.013642   0.000000
    13  C    1.453088   3.126025   0.000000
    14  H    2.110191   2.385599   1.089541   0.000000
    15  H    2.086891   3.819007   1.092354   1.754545   0.000000
    16  H    2.131410   3.860911   1.101751   1.772485   1.781629
    17  C    1.449157   4.425722   2.402328   3.350259   2.582539
    18  H    2.093094   4.757903   3.346975   4.173205   3.566364
    19  H    2.142315   5.111445   2.752530   3.783312   3.008329
    20  H    2.074602   4.865427   2.596878   3.554055   2.295878
    21  C    3.474328   1.615303   3.807120   3.246345   4.146391
    22  C    3.403129   2.590037   3.423696   2.992835   3.344522
    23  C    5.007916   2.629699   5.224078   4.508473   5.515950
    24  C    3.504602   2.611157   4.359068   4.134004   4.713706
    25  H    2.577611   2.858022   2.675327   2.576373   2.476314
    26  H    3.917580   2.843469   3.519222   2.883234   3.355163
    27  H    4.236742   3.543047   4.385138   4.056269   4.158220
    28  H    5.481468   2.885489   5.819728   5.094608   6.265012
    29  H    5.549110   3.572922   5.858536   5.253603   6.002415
    30  H    5.472493   2.930433   5.402402   4.545111   5.637462
    31  H    4.314588   3.566153   5.142304   4.954388   5.312490
    32  H    4.071156   2.862161   5.011282   4.743742   5.530505
    33  H    2.708345   2.870985   3.796402   3.838658   4.144127
    34  C    4.146895   1.618014   3.734664   2.715537   4.409576
    35  C    4.274566   2.629750   3.679496   2.801171   4.520164
    36  C    5.445718   2.562374   5.229370   4.245228   5.924772
    37  C    4.753963   2.651644   3.995602   2.916063   4.332297
    38  H    3.717622   2.913663   2.886646   2.138922   3.713372
    39  H    4.395295   2.880780   4.091962   3.394044   5.067970
    40  H    5.307250   3.579019   4.561926   3.652761   5.308156
    41  H    5.862273   2.856899   5.731891   4.752103   6.305465
    42  H    6.257992   3.521554   5.853721   4.825442   6.529004
    43  H    5.544317   2.794505   5.546822   4.677346   6.366908
    44  H    5.689057   3.591935   4.817128   3.744331   5.163675
    45  H    5.183718   2.926051   4.575851   3.555441   4.765228
    46  H    4.293526   2.939531   3.300525   2.292554   3.469535
                   16         17         18         19         20
    16  H    0.000000
    17  C    2.771494   0.000000
    18  H    3.778541   1.091385   0.000000
    19  H    2.670925   1.102824   1.782337   0.000000
    20  H    3.085561   1.092410   1.766892   1.773543   0.000000
    21  C    4.786186   4.653494   4.800601   5.576895   4.857470
    22  C    4.500267   4.376531   4.701536   5.339480   4.231434
    23  C    6.169856   6.192002   6.294903   7.118417   6.354340
    24  C    5.322378   4.371409   4.161818   5.361667   4.673275
    25  H    3.775356   3.376975   3.773366   4.347460   3.148934
    26  H    4.505386   4.965298   5.467322   5.819827   4.757264
    27  H    5.479024   5.002433   5.183801   6.033980   4.726623
    28  H    6.686111   6.696721   6.709218   7.576046   7.005976
    29  H    6.875734   6.574944   6.579666   7.579386   6.620921
    30  H    6.296679   6.726354   6.977819   7.600556   6.821392
    31  H    6.165515   4.990797   4.694642   6.046134   5.115700
    32  H    5.865848   4.962123   4.645144   5.859261   5.440019
    33  H    4.719278   3.372330   3.079430   4.373171   3.727756
    34  C    4.211963   5.592012   6.108802   6.108985   5.979035
    35  C    3.735162   5.644508   6.275728   5.887425   6.153550
    36  C    5.693545   6.889472   7.262193   7.436449   7.344750
    37  C    4.529510   6.113821   6.761443   6.667701   6.243128
    38  H    2.761616   4.983459   5.744383   5.116741   5.439525
    39  H    4.056265   5.715164   6.225619   5.884696   6.390025
    40  H    4.519842   6.653823   7.333603   6.845848   7.109456
    41  H    6.348494   7.277724   7.574968   7.948179   7.646273
    42  H    6.190713   7.705896   8.163404   8.171909   8.141081
    43  H    5.944718   6.950773   7.211558   7.450106   7.544553
    44  H    5.177996   7.045413   7.740227   7.506996   7.189920
    45  H    5.278118   6.501513   7.057893   7.189512   6.535473
    46  H    3.811603   5.543067   6.307421   6.047046   5.552393
                   21         22         23         24         25
    21  C    0.000000
    22  C    1.547345   0.000000
    23  C    1.542374   2.501315   0.000000
    24  C    1.540856   2.485830   2.478012   0.000000
    25  H    2.188848   1.091489   3.462962   2.706897   0.000000
    26  H    2.214018   1.091624   2.815746   3.469048   1.773567
    27  H    2.167565   1.096931   2.669615   2.704197   1.767399
    28  H    2.197609   3.476601   1.094468   2.763060   4.337087
    29  H    2.167046   2.723894   1.096445   2.649625   3.694227
    30  H    2.209963   2.764504   1.091602   3.460516   3.803199
    31  H    2.175328   2.716096   2.665587   1.096804   3.037202
    32  H    2.195066   3.464041   2.765696   1.094301   3.728459
    33  H    2.189722   2.725604   3.450796   1.091894   2.488704
    34  C    2.867320   3.537158   3.294112   4.137054   3.940660
    35  C    4.153577   4.711120   4.794066   5.225326   4.833676
    36  C    3.498221   4.508302   3.306072   4.636078   5.121776
    37  C    3.320533   3.385254   3.537928   4.816734   3.902342
    38  H    4.373749   4.640351   5.269387   5.387670   4.538838
    39  H    4.484313   5.282467   5.155855   5.304104   5.349954
    40  H    5.005573   5.494162   5.429656   6.186502   5.703026
    41  H    3.266595   4.297429   2.614057   4.413327   5.094139
    42  H    4.502977   5.354092   4.233425   5.712207   5.964740
    43  H    3.830922   5.065340   3.733376   4.663440   5.586930
    44  H    4.364844   4.459685   4.401804   5.856261   4.974329
    45  H    3.050111   3.028714   2.899171   4.589146   3.795499
    46  H    3.553965   3.204268   4.098577   4.981590   3.475387
                   26         27         28         29         30
    26  H    0.000000
    27  H    1.765089   0.000000
    28  H    3.828942   3.690322   0.000000
    29  H    3.160702   2.428717   1.763959   0.000000
    30  H    2.637794   3.003375   1.769443   1.762056   0.000000
    31  H    3.733301   2.470771   3.050200   2.364941   3.665676
    32  H    4.353663   3.718200   2.600529   3.040087   3.800999
    33  H    3.746326   3.054714   3.790403   3.649768   4.338128
    34  C    3.271424   4.504918   3.479184   4.350948   3.054181
    35  C    4.431612   5.764595   4.896078   5.848909   4.594868
    36  C    4.306889   5.294881   3.061973   4.380375   3.004807
    37  C    2.669606   4.257073   4.049179   4.432551   2.906297
    38  H    4.346811   5.732202   5.536109   6.253401   5.111093
    39  H    5.190646   6.320938   5.062508   6.222485   5.131059
    40  H    5.047968   6.515378   5.505818   6.491722   5.043532
    41  H    4.120673   4.897992   2.309931   3.607234   2.216830
    42  H    4.979694   6.148991   4.018230   5.272855   3.732167
    43  H    5.058277   5.847356   3.225125   4.787179   3.706319
    44  H    3.672701   5.286630   4.791425   5.300933   3.636812
    45  H    2.255254   3.686593   3.540735   3.659589   2.071590
    46  H    2.391653   4.123811   4.768392   4.883056   3.578061
                   31         32         33         34         35
    31  H    0.000000
    32  H    1.770362   0.000000
    33  H    1.770554   1.766672   0.000000
    34  C    4.995412   4.316204   4.478700   0.000000
    35  C    6.195216   5.332190   5.324587   1.542184   0.000000
    36  C    5.414885   4.518741   5.225770   1.551008   2.479777
    37  C    5.466417   5.249799   5.188526   1.540500   2.485279
    38  H    6.352210   5.647206   5.289766   2.203264   1.093491
    39  H    6.344442   5.213437   5.357827   2.196717   1.091926
    40  H    7.112011   6.281389   6.361123   2.174644   1.096457
    41  H    5.013030   4.310460   5.186399   2.214344   3.460234
    42  H    6.472432   5.614869   6.278590   2.168296   2.643081
    43  H    5.516164   4.307466   5.214592   2.212033   2.768363
    44  H    6.509822   6.209358   6.250956   2.169717   2.670884
    45  H    5.050382   5.078075   5.126187   2.206115   3.465698
    46  H    5.615057   5.576638   5.156691   2.197030   2.766852
                   36         37         38         39         40
    36  C    0.000000
    37  C    2.497533   0.000000
    38  H    3.464164   2.785552   0.000000
    39  H    2.724350   3.459082   1.760226   0.000000
    40  H    2.704899   2.669825   1.764875   1.769232   0.000000
    41  H    1.089920   2.759375   4.354402   3.765710   3.692764
    42  H    1.096408   2.712304   3.670152   2.971110   2.400263
    43  H    1.093372   3.475891   3.785010   2.560933   3.111134
    44  H    2.710162   1.096491   3.073470   3.668727   2.385502
    45  H    2.770794   1.091204   3.815393   4.344277   3.674942
    46  H    3.475096   1.094758   2.619593   3.797284   3.045642
                   41         42         43         44         45
    41  H    0.000000
    42  H    1.764537   0.000000
    43  H    1.767590   1.759038   0.000000
    44  H    3.062802   2.462040   3.721280   0.000000
    45  H    2.585233   3.093518   3.795236   1.763249   0.000000
    46  H    3.790207   3.716025   4.357158   1.763509   1.765807
                   46
    46  H    0.000000
 Symmetry turned off by external request.
 Stoichiometry    C16H28BN
 Framework group  C1[X(C16H28BN)]
 Deg. of freedom   132
 Full point group                 C1      NOp   1
 Rotational constants (GHZ):           0.5285141           0.3595666           0.3176477
 General basis read from cards:  (5D, 7F)
 ======================================================================================================
                                       Pseudopotential Parameters
 ======================================================================================================
  Center     Atomic      Valence      Angular      Power
  Number     Number     Electrons     Momentum     of R      Exponent        Coefficient   SO-Coeffient
 ======================================================================================================
    1          6
                                   No pseudopotential on this center.
    2          6
                                   No pseudopotential on this center.
    3          6
                                   No pseudopotential on this center.
    4          6
                                   No pseudopotential on this center.
    5          6
                                   No pseudopotential on this center.
    6          6
                                   No pseudopotential on this center.
    7          1
                                   No pseudopotential on this center.
    8          1
                                   No pseudopotential on this center.
    9          1
                                   No pseudopotential on this center.
   10          1
                                   No pseudopotential on this center.
   11          7
                                   No pseudopotential on this center.
   12          5
                                   No pseudopotential on this center.
   13          6
                                   No pseudopotential on this center.
   14          1
                                   No pseudopotential on this center.
   15          1
                                   No pseudopotential on this center.
   16          1
                                   No pseudopotential on this center.
   17          6
                                   No pseudopotential on this center.
   18          1
                                   No pseudopotential on this center.
   19          1
                                   No pseudopotential on this center.
   20          1
                                   No pseudopotential on this center.
   21          6
                                   No pseudopotential on this center.
   22          6
                                   No pseudopotential on this center.
   23          6
                                   No pseudopotential on this center.
   24          6
                                   No pseudopotential on this center.
   25          1
                                   No pseudopotential on this center.
   26          1
                                   No pseudopotential on this center.
   27          1
                                   No pseudopotential on this center.
   28          1
                                   No pseudopotential on this center.
   29          1
                                   No pseudopotential on this center.
   30          1
                                   No pseudopotential on this center.
   31          1
                                   No pseudopotential on this center.
   32          1
                                   No pseudopotential on this center.
   33          1
                                   No pseudopotential on this center.
   34          6
                                   No pseudopotential on this center.
   35          6
                                   No pseudopotential on this center.
   36          6
                                   No pseudopotential on this center.
   37          6
                                   No pseudopotential on this center.
   38          1
                                   No pseudopotential on this center.
   39          1
                                   No pseudopotential on this center.
   40          1
                                   No pseudopotential on this center.
   41          1
                                   No pseudopotential on this center.
   42          1
                                   No pseudopotential on this center.
   43          1
                                   No pseudopotential on this center.
   44          1
                                   No pseudopotential on this center.
   45          1
                                   No pseudopotential on this center.
   46          1
                                   No pseudopotential on this center.
 ======================================================================================================
   592 basis functions,   900 primitive gaussians,   610 cartesian basis functions
    68 alpha electrons       68 beta electrons
       nuclear repulsion energy      1435.3014445850 Hartrees.
 NAtoms=   46 NActive=   46 NUniq=   46 SFac= 1.00D+00 NAtFMM=   60 NAOKFM=F Big=F
 Integral buffers will be    131072 words long.
 Raffenetti 2 integral format.
 Two-electron integral symmetry is turned off.
 Nuclear repulsion after empirical dispersion term =     1435.2513789051 Hartrees.
 ------------------------------------------------------------------------------
 Polarizable Continuum Model (PCM)
 =================================
 Model                : PCM.
 Atomic radii         : UFF (Universal Force Field).
 Polarization charges : Total charges.
 Charge compensation  : None.
 Solution method      : On-the-fly selection.
 Cavity type          : Scaled VdW (van der Waals Surface) (Alpha=1.100).
 Cavity algorithm     : GePol (No added spheres)
                        Default sphere list used, NSphG=   46.
                        Lebedev-Laikov grids with approx.  5.0 points / Ang**2.
                        Smoothing algorithm: York/Karplus (Gamma=1.0000).
                        Polarization charges: spherical gaussians, with
                                              point-specific exponents (IZeta= 3).
                        Self-potential: point-specific (ISelfS= 7).
                        Self-field    : sphere-specific E.n sum rule (ISelfD= 2).
 Solvent              : Toluene, Eps=   2.374100 Eps(inf)=   2.238315
 ------------------------------------------------------------------------------
 One-electron integrals computed using PRISM.
   1 Symmetry operations used in ECPInt.
 ECPInt:  NShTT=   30876 NPrTT=   93073 LenC2=   29463 LenP2D=   65095.
 LDataN:  DoStor=T MaxTD1= 4 Len=   56
 Number of processors reduced to  72 by ecpmxn.
 NBasis=   592 RedAO= T EigKep=  1.24D-06  NBF=   592
 NBsUse=   589 1.00D-06 EigRej=  8.00D-07 NBFU=   589
 ExpMin= 3.15D-02 ExpMax= 6.29D+03 ExpMxC= 9.49D+02 IAcc=3 IRadAn=         5 AccDes= 0.00D+00
 Harris functional with IExCor= 4639 and IRadAn=       5 diagonalized for initial guess.
 HarFok:  IExCor= 4639 AccDes= 0.00D+00 IRadAn=         5 IDoV= 1 UseB2=F ITyADJ=14
 ICtDFT=  3500011 ScaDFX=  1.000000  1.000000  1.000000  1.000000
 FoFCou: FMM=F IPFlag=           0 FMFlag=      100000 FMFlg1=           0
         NFxFlg=           0 DoJE=T BraDBF=F KetDBF=T FulRan=T
         wScrn=  0.000000 ICntrl=       500 IOpCl=  0 I1Cent=   200000004 NGrid=           0
         NMat0=    1 NMatS0=      1 NMatT0=    0 NMatD0=    1 NMtDS0=    0 NMtDT0=    0
 Symmetry not used in FoFCou.
 Requested convergence on RMS density matrix=1.00D-08 within 300 cycles.
 Requested convergence on MAX density matrix=1.00D-06.
 Requested convergence on             energy=1.00D-06.
 No special actions if energy rises.
 Inv3:  Mode=1 IEnd=    20734923.
 Iteration    1 A*A^-1 deviation from unit magnitude is 5.77D-15 for   2622.
 Iteration    1 A*A^-1 deviation from orthogonality  is 3.49D-15 for   2611    648.
 Iteration    1 A^-1*A deviation from unit magnitude is 5.77D-15 for   2622.
 Iteration    1 A^-1*A deviation from orthogonality  is 1.64D-15 for   2161    607.
 Error on total polarization charges =  0.01163
 SCF Done:  E(RwB97XD) =  -706.139730625     A.U. after   16 cycles
            NFock= 16  Conv=0.36D-08     -V/T= 2.0049

 **********************************************************************

            Population analysis using the SCF Density.

 **********************************************************************

 Alpha  occ. eigenvalues --  -14.44131 -10.32198 -10.31011 -10.30537 -10.28481
 Alpha  occ. eigenvalues --  -10.28354 -10.28012 -10.27831 -10.27777 -10.27261
 Alpha  occ. eigenvalues --  -10.27198 -10.26882 -10.26780 -10.26594 -10.26413
 Alpha  occ. eigenvalues --  -10.26132 -10.25511  -6.85054  -1.04662  -0.94783
 Alpha  occ. eigenvalues --   -0.90897  -0.89236  -0.84658  -0.84408  -0.81462
 Alpha  occ. eigenvalues --   -0.78354  -0.77764  -0.77220  -0.76707  -0.75044
 Alpha  occ. eigenvalues --   -0.70066  -0.67463  -0.66030  -0.63203  -0.61635
 Alpha  occ. eigenvalues --   -0.57319  -0.56713  -0.56022  -0.55617  -0.53945
 Alpha  occ. eigenvalues --   -0.53233  -0.52487  -0.51824  -0.51145  -0.51017
 Alpha  occ. eigenvalues --   -0.50644  -0.49339  -0.48096  -0.47680  -0.47026
 Alpha  occ. eigenvalues --   -0.46599  -0.46072  -0.45596  -0.45366  -0.44491
 Alpha  occ. eigenvalues --   -0.44414  -0.43789  -0.43618  -0.42657  -0.41825
 Alpha  occ. eigenvalues --   -0.40877  -0.39752  -0.39560  -0.36135  -0.35828
 Alpha  occ. eigenvalues --   -0.35115  -0.31839  -0.27753
 Alpha virt. eigenvalues --    0.03531   0.03818   0.04611   0.04841   0.04920
 Alpha virt. eigenvalues --    0.05942   0.06113   0.06225   0.06473   0.06714
 Alpha virt. eigenvalues --    0.07221   0.07366   0.08013   0.08196   0.08602
 Alpha virt. eigenvalues --    0.08784   0.09271   0.09522   0.09982   0.10580
 Alpha virt. eigenvalues --    0.10724   0.11265   0.11541   0.12198   0.12433
 Alpha virt. eigenvalues --    0.12529   0.13120   0.13596   0.14024   0.14369
 Alpha virt. eigenvalues --    0.14886   0.15058   0.15554   0.15755   0.15909
 Alpha virt. eigenvalues --    0.16013   0.16167   0.16823   0.17263   0.17429
 Alpha virt. eigenvalues --    0.17579   0.17631   0.18210   0.18416   0.18766
 Alpha virt. eigenvalues --    0.18972   0.19089   0.19410   0.19613   0.19677
 Alpha virt. eigenvalues --    0.19851   0.20232   0.20467   0.20793   0.20868
 Alpha virt. eigenvalues --    0.21212   0.21290   0.21557   0.21803   0.21950
 Alpha virt. eigenvalues --    0.22085   0.22429   0.22710   0.22773   0.23061
 Alpha virt. eigenvalues --    0.23387   0.23766   0.24167   0.24484   0.24656
 Alpha virt. eigenvalues --    0.25172   0.25426   0.25695   0.25790   0.26291
 Alpha virt. eigenvalues --    0.26659   0.26745   0.27147   0.27280   0.27383
 Alpha virt. eigenvalues --    0.27628   0.27790   0.28275   0.28547   0.28681
 Alpha virt. eigenvalues --    0.29392   0.29619   0.29762   0.30186   0.30391
 Alpha virt. eigenvalues --    0.31027   0.31178   0.31439   0.31621   0.31833
 Alpha virt. eigenvalues --    0.32263   0.32365   0.32415   0.33163   0.33529
 Alpha virt. eigenvalues --    0.34032   0.34241   0.34796   0.34804   0.35381
 Alpha virt. eigenvalues --    0.35525   0.35844   0.36238   0.36748   0.36903
 Alpha virt. eigenvalues --    0.37553   0.37984   0.38109   0.38296   0.38736
 Alpha virt. eigenvalues --    0.38984   0.39095   0.39435   0.39873   0.40213
 Alpha virt. eigenvalues --    0.40539   0.41171   0.41402   0.42003   0.42427
 Alpha virt. eigenvalues --    0.42829   0.43102   0.43571   0.44119   0.44650
 Alpha virt. eigenvalues --    0.44793   0.45124   0.45376   0.46204   0.47320
 Alpha virt. eigenvalues --    0.47619   0.48404   0.48876   0.49640   0.50571
 Alpha virt. eigenvalues --    0.51493   0.52168   0.52412   0.54161   0.54957
 Alpha virt. eigenvalues --    0.56520   0.56888   0.57137   0.58577   0.59002
 Alpha virt. eigenvalues --    0.59849   0.60450   0.60816   0.61791   0.62920
 Alpha virt. eigenvalues --    0.63516   0.63848   0.64935   0.65117   0.65458
 Alpha virt. eigenvalues --    0.66310   0.66557   0.67808   0.68276   0.68520
 Alpha virt. eigenvalues --    0.68928   0.69167   0.69509   0.70198   0.70600
 Alpha virt. eigenvalues --    0.71399   0.71990   0.72205   0.72989   0.73368
 Alpha virt. eigenvalues --    0.74606   0.74766   0.75578   0.75823   0.76162
 Alpha virt. eigenvalues --    0.76542   0.76794   0.77252   0.77682   0.78241
 Alpha virt. eigenvalues --    0.78861   0.79532   0.79733   0.80009   0.80509
 Alpha virt. eigenvalues --    0.80998   0.81883   0.82275   0.82649   0.83506
 Alpha virt. eigenvalues --    0.84007   0.84331   0.84695   0.85079   0.85621
 Alpha virt. eigenvalues --    0.85794   0.87094   0.87180   0.87434   0.87567
 Alpha virt. eigenvalues --    0.88839   0.89615   0.89881   0.89947   0.90371
 Alpha virt. eigenvalues --    0.90587   0.90849   0.91468   0.92482   0.93934
 Alpha virt. eigenvalues --    0.94359   0.94614   0.95038   0.95869   0.97041
 Alpha virt. eigenvalues --    0.97744   0.98928   0.99679   1.00395   1.00911
 Alpha virt. eigenvalues --    1.01997   1.03024   1.03353   1.04655   1.05810
 Alpha virt. eigenvalues --    1.07440   1.08583   1.09454   1.10926   1.11422
 Alpha virt. eigenvalues --    1.12830   1.13518   1.13626   1.15299   1.15396
 Alpha virt. eigenvalues --    1.17174   1.18015   1.19062   1.19336   1.20790
 Alpha virt. eigenvalues --    1.22881   1.23275   1.23802   1.24555   1.25549
 Alpha virt. eigenvalues --    1.26544   1.28472   1.30368   1.31982   1.33893
 Alpha virt. eigenvalues --    1.35047   1.36871   1.37678   1.40589   1.41579
 Alpha virt. eigenvalues --    1.42605   1.44551   1.46416   1.46923   1.48683
 Alpha virt. eigenvalues --    1.50770   1.52052   1.54055   1.54512   1.55416
 Alpha virt. eigenvalues --    1.56689   1.56809   1.57164   1.58673   1.59624
 Alpha virt. eigenvalues --    1.60018   1.61122   1.61787   1.62277   1.62861
 Alpha virt. eigenvalues --    1.63790   1.63907   1.64333   1.65314   1.65850
 Alpha virt. eigenvalues --    1.66198   1.66759   1.67164   1.68097   1.68636
 Alpha virt. eigenvalues --    1.69318   1.69612   1.70254   1.70496   1.71882
 Alpha virt. eigenvalues --    1.72121   1.72520   1.73142   1.74149   1.75091
 Alpha virt. eigenvalues --    1.75579   1.76724   1.77806   1.78297   1.78482
 Alpha virt. eigenvalues --    1.78950   1.79766   1.80443   1.80847   1.81437
 Alpha virt. eigenvalues --    1.81889   1.82229   1.82857   1.84113   1.84734
 Alpha virt. eigenvalues --    1.84956   1.85590   1.86353   1.87387   1.87981
 Alpha virt. eigenvalues --    1.89318   1.89674   1.90623   1.90745   1.91681
 Alpha virt. eigenvalues --    1.92291   1.93397   1.94593   1.94974   1.96053
 Alpha virt. eigenvalues --    1.97290   1.98550   1.99079   1.99892   2.01914
 Alpha virt. eigenvalues --    2.02690   2.03641   2.04010   2.04992   2.07174
 Alpha virt. eigenvalues --    2.08106   2.08286   2.09533   2.10619   2.11252
 Alpha virt. eigenvalues --    2.12315   2.13328   2.14313   2.15256   2.15713
 Alpha virt. eigenvalues --    2.16706   2.18045   2.18749   2.19598   2.20665
 Alpha virt. eigenvalues --    2.21238   2.22667   2.24121   2.25176   2.25832
 Alpha virt. eigenvalues --    2.27105   2.27308   2.27725   2.28581   2.32260
 Alpha virt. eigenvalues --    2.34032   2.34754   2.35668   2.36446   2.39200
 Alpha virt. eigenvalues --    2.39331   2.39558   2.40950   2.43072   2.44132
 Alpha virt. eigenvalues --    2.45953   2.47350   2.51053   2.52785   2.53466
 Alpha virt. eigenvalues --    2.53941   2.54852   2.55924   2.56615   2.57180
 Alpha virt. eigenvalues --    2.58433   2.58625   2.60343   2.61661   2.62239
 Alpha virt. eigenvalues --    2.62843   2.63604   2.64121   2.64930   2.65220
 Alpha virt. eigenvalues --    2.65493   2.66187   2.66565   2.67203   2.68041
 Alpha virt. eigenvalues --    2.68470   2.68715   2.69330   2.69939   2.70202
 Alpha virt. eigenvalues --    2.71270   2.71998   2.73056   2.73800   2.74457
 Alpha virt. eigenvalues --    2.75365   2.75700   2.77772   2.79146   2.80038
 Alpha virt. eigenvalues --    2.82040   2.83118   2.83280   2.84681   2.85258
 Alpha virt. eigenvalues --    2.86097   2.86853   2.87527   2.88703   2.89192
 Alpha virt. eigenvalues --    2.90106   2.90369   2.91273   2.92048   2.93256
 Alpha virt. eigenvalues --    2.94051   2.94529   2.96255   2.96838   2.97738
 Alpha virt. eigenvalues --    2.98635   2.98976   3.00353   3.01006   3.02649
 Alpha virt. eigenvalues --    3.04438   3.05661   3.06930   3.09417   3.12329
 Alpha virt. eigenvalues --    3.13770   3.15871   3.16300   3.18492   3.19458
 Alpha virt. eigenvalues --    3.22183   3.23489   3.24841   3.26503   3.27709
 Alpha virt. eigenvalues --    3.28756   3.33159   3.38190   3.39289   3.41087
 Alpha virt. eigenvalues --    3.43367   3.46398   3.51232   3.53502   3.53918
 Alpha virt. eigenvalues --    3.60301   3.62836   3.64256   3.70356   3.70870
 Alpha virt. eigenvalues --    3.72078   3.84356   3.87562   3.88525   3.89230
 Alpha virt. eigenvalues --    3.89547   3.90682   3.90766   3.91307   3.92040
 Alpha virt. eigenvalues --    3.92424   3.93192   3.93899   3.94257   3.95136
 Alpha virt. eigenvalues --    3.95795   3.96841   3.97679   4.03440   4.05679
 Alpha virt. eigenvalues --    4.11398   4.16517   4.17683   4.24692   4.32109
 Alpha virt. eigenvalues --    4.37868   4.39396   4.40157   4.41890   4.43149
 Alpha virt. eigenvalues --    4.96922   4.99634   5.13336  14.86735  23.79460
 Alpha virt. eigenvalues --   23.94759  24.00236  24.09150  24.11559  24.12603
 Alpha virt. eigenvalues --   24.12884  24.13567  24.14434  24.15146  24.16414
 Alpha virt. eigenvalues --   24.18542  24.19242  24.22983  24.25466  24.34454
 Alpha virt. eigenvalues --   35.76320
          Condensed to atoms (all electrons):
               1          2          3          4          5          6
     1  C    9.393681  -1.081356  -2.084150   1.676496  -0.734175  -0.596926
     2  C   -1.081356   6.734126   0.626361  -0.260300   0.507261  -0.365084
     3  C   -2.084150   0.626361   7.455483  -0.146383  -0.258073   1.089824
     4  C    1.676496  -0.260300  -0.146383   8.523003   0.191131  -1.974500
     5  C   -0.734175   0.507261  -0.258073   0.191131   7.107625  -0.741252
     6  C   -0.596926  -0.365084   1.089824  -1.974500  -0.741252   8.350799
     7  H    0.395652  -0.040399   0.037925   0.007903  -0.040507  -0.016895
     8  H   -0.008026   0.347693  -0.070326   0.048584  -0.000647   0.001208
     9  H   -0.010055   0.031380   0.027546  -0.023501   0.459041  -0.095338
    10  H   -0.015769  -0.021448   0.022644   0.014052  -0.070123   0.412354
    11  N    0.037916  -0.102816  -0.415007  -0.406791  -0.245727   0.141560
    12  B   -0.878943  -0.918261   0.120939  -1.487217  -0.760416   0.961186
    13  C    0.120706   0.011294  -0.167966  -0.412716   0.066059  -0.080240
    14  H   -0.012714   0.009344   0.010480  -0.086422   0.062917  -0.000789
    15  H    0.001420  -0.007321   0.009784   0.036366   0.006650   0.009500
    16  H    0.003670   0.008512   0.007034   0.033171   0.011984  -0.005115
    17  C    0.039082   0.042252  -0.065317   0.163549  -0.045559  -0.339545
    18  H    0.020143  -0.008191  -0.019120   0.036110  -0.033151  -0.039789
    19  H   -0.011797   0.000592   0.009427  -0.016078   0.024107   0.048248
    20  H    0.001701   0.003992   0.001987  -0.006986   0.030677  -0.018778
    21  C   -0.075770   0.057914  -0.152468  -0.081559  -0.106477   0.065288
    22  C   -0.165646   0.017299   0.091549   0.231657   0.168963   0.005104
    23  C    0.024977  -0.020079  -0.242895  -0.067243  -0.001610  -0.002080
    24  C   -0.062535   0.126522   0.179483  -0.052274   0.193530  -0.036364
    25  H   -0.014410   0.002217  -0.015351   0.036670   0.002579   0.009763
    26  H   -0.001751   0.007578   0.004941   0.009115   0.005641  -0.001656
    27  H   -0.003919   0.000436   0.005235   0.010669   0.003063   0.000097
    28  H   -0.000041  -0.004772   0.008242  -0.001021   0.002212  -0.002426
    29  H   -0.002308  -0.004941   0.002748  -0.001532  -0.000653   0.000844
    30  H   -0.003570  -0.001969  -0.003584  -0.002261   0.001828   0.000642
    31  H    0.004714   0.001334   0.013794   0.003353   0.002446  -0.003087
    32  H   -0.065363   0.045000   0.043586  -0.005352   0.016279   0.009582
    33  H   -0.048302   0.002345   0.008873  -0.029210   0.039865  -0.015133
    34  C   -0.247900   0.045683  -0.376462  -0.032598  -0.013802   0.077342
    35  C    0.277622   0.102063  -0.001573   0.194425  -0.008855  -0.108924
    36  C    0.315914   0.040533   0.103406   0.065703  -0.011945  -0.083978
    37  C    0.099712   0.081173  -0.116112   0.000590   0.004550  -0.040548
    38  H    0.033058  -0.019000   0.006973   0.017787  -0.020788  -0.012032
    39  H    0.123921  -0.007220  -0.066939   0.042198  -0.020712  -0.028961
    40  H   -0.001701   0.001142   0.021732   0.000811   0.001844  -0.001490
    41  H    0.014555   0.000497  -0.005666   0.003793  -0.001215  -0.001535
    42  H    0.008642   0.005293   0.001239   0.000486  -0.001047  -0.001159
    43  H    0.059161   0.000699  -0.046330   0.010833  -0.004035  -0.007554
    44  H    0.002282   0.001987   0.013145  -0.002281   0.000200  -0.000440
    45  H    0.000863  -0.005057  -0.003009   0.001797   0.001421  -0.000487
    46  H    0.004184   0.001010   0.017784  -0.000835   0.000359  -0.004508
               7          8          9         10         11         12
     1  C    0.395652  -0.008026  -0.010055  -0.015769   0.037916  -0.878943
     2  C   -0.040399   0.347693   0.031380  -0.021448  -0.102816  -0.918261
     3  C    0.037925  -0.070326   0.027546   0.022644  -0.415007   0.120939
     4  C    0.007903   0.048584  -0.023501   0.014052  -0.406791  -1.487217
     5  C   -0.040507  -0.000647   0.459041  -0.070123  -0.245727  -0.760416
     6  C   -0.016895   0.001208  -0.095338   0.412354   0.141560   0.961186
     7  H    0.465664  -0.016383   0.000712  -0.006067  -0.000681  -0.011179
     8  H   -0.016383   0.595075  -0.001279   0.003668   0.011147  -0.109350
     9  H    0.000712  -0.001279   0.500549  -0.009093  -0.040591  -0.048174
    10  H   -0.006067   0.003668  -0.009093   0.469748  -0.005856  -0.013344
    11  N   -0.000681   0.011147  -0.040591  -0.005856   7.385911   0.372532
    12  B   -0.011179  -0.109350  -0.048174  -0.013344   0.372532  22.214002
    13  C    0.000554   0.005190  -0.010569  -0.000346   0.363826  -1.027617
    14  H   -0.001290  -0.001361   0.002565   0.000341  -0.080923  -0.580141
    15  H    0.000072  -0.000251   0.000081  -0.000026  -0.070725  -0.013874
    16  H    0.000063  -0.000304   0.002292  -0.000282  -0.087651  -0.049577
    17  C   -0.000863   0.003354   0.009166   0.000204   0.184589  -0.191059
    18  H    0.000210  -0.000050  -0.008768  -0.000520  -0.051846   0.007002
    19  H   -0.000249  -0.000095  -0.002532   0.001417  -0.070753   0.002653
    20  H   -0.000010   0.000078   0.004855  -0.000024  -0.065893  -0.039349
    21  C    0.003148  -0.048119  -0.003120  -0.001197  -0.096625   0.338383
    22  C   -0.000195  -0.012230   0.006394   0.000116  -0.078507  -2.242153
    23  C   -0.001750  -0.005883  -0.000494  -0.000530   0.008981  -0.755096
    24  C   -0.002264   0.014968  -0.000106   0.002430   0.095161  -1.428916
    25  H    0.000056  -0.001987   0.000452  -0.000219   0.021265  -0.041653
    26  H   -0.000039  -0.001979   0.000072   0.000041  -0.009422  -0.161879
    27  H   -0.000035  -0.000145   0.000180  -0.000009  -0.001492  -0.040445
    28  H    0.000410  -0.002334  -0.000009  -0.000136  -0.000004  -0.116006
    29  H   -0.000035  -0.000696  -0.000014  -0.000004  -0.000527   0.129780
    30  H   -0.000268   0.001464  -0.000022   0.000019   0.001637  -0.110660
    31  H    0.000104  -0.000027  -0.000146   0.000119  -0.000092   0.120894
    32  H   -0.000379  -0.003517   0.001169   0.000439  -0.007158  -0.248627
    33  H   -0.000122  -0.001264   0.001732  -0.000778  -0.018497  -0.234162
    34  C   -0.005657   0.046932   0.000220   0.000786  -0.005079   1.438473
    35  C    0.000769   0.032379   0.002115   0.001090   0.001553  -2.022722
    36  C    0.006716   0.005299   0.000386  -0.001291   0.030089  -2.837009
    37  C    0.000785  -0.019866   0.000326  -0.000952  -0.016240  -2.671617
    38  H    0.001005   0.002518  -0.000571  -0.000202   0.001376  -0.205095
    39  H    0.000312   0.002850   0.000218  -0.000168  -0.003781  -0.318761
    40  H    0.000030  -0.002102   0.000106   0.000104  -0.000200   0.097858
    41  H   -0.000176   0.002061  -0.000034   0.000005   0.001315  -0.086971
    42  H    0.000018   0.002347  -0.000012  -0.000016   0.000882  -0.071930
    43  H    0.001691  -0.016650   0.000039  -0.000589   0.001874  -0.207849
    44  H    0.000046  -0.001846  -0.000022  -0.000016  -0.000949   0.027079
    45  H    0.000079  -0.001102   0.000027  -0.000042   0.000398  -0.022494
    46  H    0.000094   0.002006   0.000088  -0.000051  -0.000414  -0.101609
              13         14         15         16         17         18
     1  C    0.120706  -0.012714   0.001420   0.003670   0.039082   0.020143
     2  C    0.011294   0.009344  -0.007321   0.008512   0.042252  -0.008191
     3  C   -0.167966   0.010480   0.009784   0.007034  -0.065317  -0.019120
     4  C   -0.412716  -0.086422   0.036366   0.033171   0.163549   0.036110
     5  C    0.066059   0.062917   0.006650   0.011984  -0.045559  -0.033151
     6  C   -0.080240  -0.000789   0.009500  -0.005115  -0.339545  -0.039789
     7  H    0.000554  -0.001290   0.000072   0.000063  -0.000863   0.000210
     8  H    0.005190  -0.001361  -0.000251  -0.000304   0.003354  -0.000050
     9  H   -0.010569   0.002565   0.000081   0.002292   0.009166  -0.008768
    10  H   -0.000346   0.000341  -0.000026  -0.000282   0.000204  -0.000520
    11  N    0.363826  -0.080923  -0.070725  -0.087651   0.184589  -0.051846
    12  B   -1.027617  -0.580141  -0.013874  -0.049577  -0.191059   0.007002
    13  C    6.104686   0.266229   0.403958   0.415162  -0.190661   0.026979
    14  H    0.266229   1.281035  -0.044032  -0.045646   0.008215  -0.009861
    15  H    0.403958  -0.044032   0.515001  -0.038680  -0.023118   0.001897
    16  H    0.415162  -0.045646  -0.038680   0.553116  -0.017124   0.000553
    17  C   -0.190661   0.008215  -0.023118  -0.017124   5.503716   0.455455
    18  H    0.026979  -0.009861   0.001897   0.000553   0.455455   0.523100
    19  H   -0.012315  -0.002142  -0.004162   0.014897   0.373339  -0.048407
    20  H    0.008481   0.019766   0.006990  -0.007249   0.425324  -0.006039
    21  C    0.085909   0.001431   0.006724   0.004937  -0.019640   0.004980
    22  C   -0.020401  -0.017303   0.019611  -0.002221   0.014665  -0.008720
    23  C    0.009363   0.064855  -0.001353  -0.002630  -0.006248  -0.000920
    24  C    0.091321   0.041051  -0.005811   0.002568   0.025697  -0.003624
    25  H   -0.061373   0.031764  -0.010648   0.006956  -0.029320  -0.002447
    26  H    0.031493   0.015032  -0.000470   0.000594   0.002980   0.000432
    27  H   -0.001938  -0.003650  -0.000611   0.000084  -0.000318  -0.000542
    28  H   -0.001586  -0.007456   0.000281  -0.000229  -0.000030  -0.000095
    29  H    0.000121  -0.002835  -0.000226   0.000115  -0.000223   0.000005
    30  H    0.004600  -0.002390  -0.000318  -0.000068   0.001238   0.000033
    31  H   -0.000431  -0.002818  -0.000711   0.000089   0.000333   0.000371
    32  H   -0.011245  -0.005689   0.000311   0.000607  -0.001004  -0.000312
    33  H    0.030726   0.024152  -0.001045   0.000421  -0.020734  -0.004713
    34  C   -0.097399   0.033632  -0.002812   0.004942  -0.004505  -0.001354
    35  C    0.030214   0.165593  -0.012360   0.000256   0.025162   0.002256
    36  C    0.068669  -0.065818   0.005592  -0.007613   0.006141   0.000653
    37  C    0.176905   0.034046   0.000353   0.001824   0.011760   0.000639
    38  H   -0.001256   0.011962   0.007330  -0.011970   0.000748   0.000389
    39  H    0.031367  -0.019045  -0.000033   0.004460   0.003756   0.000573
    40  H   -0.001785   0.004034  -0.000609   0.000896   0.000225  -0.000049
    41  H    0.003383   0.006462  -0.000131  -0.000004   0.000243   0.000042
    42  H    0.003301  -0.008043   0.000110  -0.000211   0.000293   0.000026
    43  H    0.006473   0.007667   0.000129  -0.000019   0.000453   0.000072
    44  H    0.009310  -0.007989   0.000869  -0.000351  -0.000051   0.000014
    45  H   -0.009235   0.028728  -0.001270   0.000293  -0.000791  -0.000043
    46  H    0.017288  -0.064240   0.001863  -0.001943   0.001549   0.000271
              19         20         21         22         23         24
     1  C   -0.011797   0.001701  -0.075770  -0.165646   0.024977  -0.062535
     2  C    0.000592   0.003992   0.057914   0.017299  -0.020079   0.126522
     3  C    0.009427   0.001987  -0.152468   0.091549  -0.242895   0.179483
     4  C   -0.016078  -0.006986  -0.081559   0.231657  -0.067243  -0.052274
     5  C    0.024107   0.030677  -0.106477   0.168963  -0.001610   0.193530
     6  C    0.048248  -0.018778   0.065288   0.005104  -0.002080  -0.036364
     7  H   -0.000249  -0.000010   0.003148  -0.000195  -0.001750  -0.002264
     8  H   -0.000095   0.000078  -0.048119  -0.012230  -0.005883   0.014968
     9  H   -0.002532   0.004855  -0.003120   0.006394  -0.000494  -0.000106
    10  H    0.001417  -0.000024  -0.001197   0.000116  -0.000530   0.002430
    11  N   -0.070753  -0.065893  -0.096625  -0.078507   0.008981   0.095161
    12  B    0.002653  -0.039349   0.338383  -2.242153  -0.755096  -1.428916
    13  C   -0.012315   0.008481   0.085909  -0.020401   0.009363   0.091321
    14  H   -0.002142   0.019766   0.001431  -0.017303   0.064855   0.041051
    15  H   -0.004162   0.006990   0.006724   0.019611  -0.001353  -0.005811
    16  H    0.014897  -0.007249   0.004937  -0.002221  -0.002630   0.002568
    17  C    0.373339   0.425324  -0.019640   0.014665  -0.006248   0.025697
    18  H   -0.048407  -0.006039   0.004980  -0.008720  -0.000920  -0.003624
    19  H    0.583534  -0.049656  -0.001468   0.001708  -0.000006   0.004935
    20  H   -0.049656   0.516357  -0.002452   0.001428  -0.001155   0.001994
    21  C   -0.001468  -0.002452   6.946204  -0.749962  -0.349768  -0.248272
    22  C    0.001708   0.001428  -0.749962   8.095780   0.221914   0.067623
    23  C   -0.000006  -0.001155  -0.349768   0.221914   6.652014  -0.426693
    24  C    0.004935   0.001994  -0.248272   0.067623  -0.426693   7.032773
    25  H   -0.000768  -0.007507  -0.098010   0.492280   0.065764  -0.035608
    26  H    0.000068   0.001117   0.078555   0.263537  -0.013808   0.058731
    27  H    0.000068   0.000210  -0.033244   0.512503  -0.031699  -0.055257
    28  H    0.000006  -0.000032   0.000641   0.078703   0.424205  -0.043324
    29  H   -0.000052   0.000019  -0.015508  -0.050742   0.399418  -0.078553
    30  H    0.000047  -0.000042  -0.002822   0.040726   0.332943   0.093015
    31  H    0.000154   0.000151  -0.012870  -0.090797  -0.085182   0.407918
    32  H    0.000209  -0.000700   0.033111   0.163121  -0.031686   0.420222
    33  H   -0.001470   0.003143   0.045734   0.033361   0.077130   0.379776
    34  C    0.001460  -0.002257  -0.318338   0.374763   0.203367   0.098330
    35  C   -0.003459   0.003851  -0.008592  -0.156344  -0.078752  -0.005558
    36  C   -0.000581   0.000892   0.226560  -0.315334  -0.097883  -0.177209
    37  C   -0.001084   0.003224   0.454371  -0.181463   0.148260  -0.196942
    38  H    0.000349  -0.000360   0.014212  -0.039551  -0.022120  -0.010263
    39  H   -0.000340   0.000406   0.021871  -0.037485   0.003135  -0.019670
    40  H    0.000038   0.000038   0.003131   0.002282  -0.000393   0.003379
    41  H   -0.000052   0.000064  -0.042445  -0.018776   0.042420  -0.001491
    42  H   -0.000028   0.000035   0.011255  -0.012250   0.000959  -0.006369
    43  H   -0.000021   0.000039   0.030950  -0.030514   0.014555  -0.015096
    44  H    0.000002  -0.000010   0.003615  -0.018882   0.009563  -0.001116
    45  H   -0.000043   0.000086   0.092853  -0.020087  -0.064354   0.001369
    46  H   -0.000329   0.000256  -0.071631   0.042835   0.009665  -0.020062
              25         26         27         28         29         30
     1  C   -0.014410  -0.001751  -0.003919  -0.000041  -0.002308  -0.003570
     2  C    0.002217   0.007578   0.000436  -0.004772  -0.004941  -0.001969
     3  C   -0.015351   0.004941   0.005235   0.008242   0.002748  -0.003584
     4  C    0.036670   0.009115   0.010669  -0.001021  -0.001532  -0.002261
     5  C    0.002579   0.005641   0.003063   0.002212  -0.000653   0.001828
     6  C    0.009763  -0.001656   0.000097  -0.002426   0.000844   0.000642
     7  H    0.000056  -0.000039  -0.000035   0.000410  -0.000035  -0.000268
     8  H   -0.001987  -0.001979  -0.000145  -0.002334  -0.000696   0.001464
     9  H    0.000452   0.000072   0.000180  -0.000009  -0.000014  -0.000022
    10  H   -0.000219   0.000041  -0.000009  -0.000136  -0.000004   0.000019
    11  N    0.021265  -0.009422  -0.001492  -0.000004  -0.000527   0.001637
    12  B   -0.041653  -0.161879  -0.040445  -0.116006   0.129780  -0.110660
    13  C   -0.061373   0.031493  -0.001938  -0.001586   0.000121   0.004600
    14  H    0.031764   0.015032  -0.003650  -0.007456  -0.002835  -0.002390
    15  H   -0.010648  -0.000470  -0.000611   0.000281  -0.000226  -0.000318
    16  H    0.006956   0.000594   0.000084  -0.000229   0.000115  -0.000068
    17  C   -0.029320   0.002980  -0.000318  -0.000030  -0.000223   0.001238
    18  H   -0.002447   0.000432  -0.000542  -0.000095   0.000005   0.000033
    19  H   -0.000768   0.000068   0.000068   0.000006  -0.000052   0.000047
    20  H   -0.007507   0.001117   0.000210  -0.000032   0.000019  -0.000042
    21  C   -0.098010   0.078555  -0.033244   0.000641  -0.015508  -0.002822
    22  C    0.492280   0.263537   0.512503   0.078703  -0.050742   0.040726
    23  C    0.065764  -0.013808  -0.031699   0.424205   0.399418   0.332943
    24  C   -0.035608   0.058731  -0.055257  -0.043324  -0.078553   0.093015
    25  H    0.577558  -0.030221  -0.016433  -0.004983   0.008507   0.000802
    26  H   -0.030221   0.570673  -0.047102  -0.003493  -0.008075   0.015926
    27  H   -0.016433  -0.047102   0.532869   0.006433   0.000704   0.000961
    28  H   -0.004983  -0.003493   0.006433   0.551368  -0.027234  -0.029828
    29  H    0.008507  -0.008075   0.000704  -0.027234   0.540214  -0.053247
    30  H    0.000802   0.015926   0.000961  -0.029828  -0.053247   0.617057
    31  H   -0.009051   0.006559  -0.002623  -0.006575  -0.000566   0.014046
    32  H    0.013218  -0.007277   0.006858   0.007066  -0.000759   0.000134
    33  H    0.017284  -0.002860   0.008158   0.000988   0.007303  -0.008383
    34  C    0.062418  -0.040643   0.010941  -0.091973  -0.005320   0.147446
    35  C   -0.020822   0.026934  -0.006688  -0.011505  -0.002077  -0.009139
    36  C   -0.053604   0.016640  -0.015701   0.062880  -0.010994  -0.076518
    37  C   -0.046796   0.065603  -0.004722   0.035502   0.007931  -0.072650
    38  H   -0.007790  -0.000367  -0.000775   0.000277  -0.000652   0.000729
    39  H   -0.003545   0.000063  -0.000632  -0.001559   0.000230  -0.001980
    40  H    0.000544  -0.000713  -0.000051  -0.000274   0.000039  -0.001705
    41  H   -0.002356   0.001504  -0.002646  -0.004554   0.000313  -0.012570
    42  H   -0.001730  -0.001075  -0.000340   0.001078   0.000069  -0.001461
    43  H   -0.002257   0.001844  -0.000726   0.000171   0.000237  -0.004230
    44  H   -0.000495   0.001095  -0.000544  -0.001569   0.000093  -0.000182
    45  H   -0.000677   0.000243  -0.001769  -0.003609   0.000569  -0.030476
    46  H   -0.004963  -0.009640  -0.000165   0.006481  -0.000290  -0.003623
              31         32         33         34         35         36
     1  C    0.004714  -0.065363  -0.048302  -0.247900   0.277622   0.315914
     2  C    0.001334   0.045000   0.002345   0.045683   0.102063   0.040533
     3  C    0.013794   0.043586   0.008873  -0.376462  -0.001573   0.103406
     4  C    0.003353  -0.005352  -0.029210  -0.032598   0.194425   0.065703
     5  C    0.002446   0.016279   0.039865  -0.013802  -0.008855  -0.011945
     6  C   -0.003087   0.009582  -0.015133   0.077342  -0.108924  -0.083978
     7  H    0.000104  -0.000379  -0.000122  -0.005657   0.000769   0.006716
     8  H   -0.000027  -0.003517  -0.001264   0.046932   0.032379   0.005299
     9  H   -0.000146   0.001169   0.001732   0.000220   0.002115   0.000386
    10  H    0.000119   0.000439  -0.000778   0.000786   0.001090  -0.001291
    11  N   -0.000092  -0.007158  -0.018497  -0.005079   0.001553   0.030089
    12  B    0.120894  -0.248627  -0.234162   1.438473  -2.022722  -2.837009
    13  C   -0.000431  -0.011245   0.030726  -0.097399   0.030214   0.068669
    14  H   -0.002818  -0.005689   0.024152   0.033632   0.165593  -0.065818
    15  H   -0.000711   0.000311  -0.001045  -0.002812  -0.012360   0.005592
    16  H    0.000089   0.000607   0.000421   0.004942   0.000256  -0.007613
    17  C    0.000333  -0.001004  -0.020734  -0.004505   0.025162   0.006141
    18  H    0.000371  -0.000312  -0.004713  -0.001354   0.002256   0.000653
    19  H    0.000154   0.000209  -0.001470   0.001460  -0.003459  -0.000581
    20  H    0.000151  -0.000700   0.003143  -0.002257   0.003851   0.000892
    21  C   -0.012870   0.033111   0.045734  -0.318338  -0.008592   0.226560
    22  C   -0.090797   0.163121   0.033361   0.374763  -0.156344  -0.315334
    23  C   -0.085182  -0.031686   0.077130   0.203367  -0.078752  -0.097883
    24  C    0.407918   0.420222   0.379776   0.098330  -0.005558  -0.177209
    25  H   -0.009051   0.013218   0.017284   0.062418  -0.020822  -0.053604
    26  H    0.006559  -0.007277  -0.002860  -0.040643   0.026934   0.016640
    27  H   -0.002623   0.006858   0.008158   0.010941  -0.006688  -0.015701
    28  H   -0.006575   0.007066   0.000988  -0.091973  -0.011505   0.062880
    29  H   -0.000566  -0.000759   0.007303  -0.005320  -0.002077  -0.010994
    30  H    0.014046   0.000134  -0.008383   0.147446  -0.009139  -0.076518
    31  H    0.561775  -0.051969  -0.060005   0.001545   0.003788   0.008021
    32  H   -0.051969   0.585428  -0.016208   0.047356  -0.015435  -0.064273
    33  H   -0.060005  -0.016208   0.601465   0.024486  -0.022908  -0.046738
    34  C    0.001545   0.047356   0.024486   7.397862  -0.144876  -1.514426
    35  C    0.003788  -0.015435  -0.022908  -0.144876   6.498223   0.414481
    36  C    0.008021  -0.064273  -0.046738  -1.514426   0.414481   8.218745
    37  C   -0.000639  -0.035042   0.004527  -0.752342   0.063314   0.626918
    38  H    0.000782  -0.002839  -0.005769  -0.055747   0.400821   0.157740
    39  H    0.000101  -0.004463  -0.001464   0.044506   0.374691   0.050607
    40  H   -0.000085   0.000537   0.000277  -0.034718   0.416218  -0.054939
    41  H   -0.000890  -0.002115  -0.001422   0.024877   0.066745   0.351642
    42  H    0.000185  -0.001086  -0.001246  -0.089843  -0.041372   0.559091
    43  H    0.000716  -0.008751  -0.001924  -0.058814  -0.000034   0.444449
    44  H    0.000190  -0.000913   0.000213  -0.067532  -0.035650  -0.024899
    45  H   -0.001271   0.000504   0.001465   0.027909   0.045955   0.006372
    46  H    0.000137  -0.000484  -0.002642  -0.071848   0.005783   0.097720
              37         38         39         40         41         42
     1  C    0.099712   0.033058   0.123921  -0.001701   0.014555   0.008642
     2  C    0.081173  -0.019000  -0.007220   0.001142   0.000497   0.005293
     3  C   -0.116112   0.006973  -0.066939   0.021732  -0.005666   0.001239
     4  C    0.000590   0.017787   0.042198   0.000811   0.003793   0.000486
     5  C    0.004550  -0.020788  -0.020712   0.001844  -0.001215  -0.001047
     6  C   -0.040548  -0.012032  -0.028961  -0.001490  -0.001535  -0.001159
     7  H    0.000785   0.001005   0.000312   0.000030  -0.000176   0.000018
     8  H   -0.019866   0.002518   0.002850  -0.002102   0.002061   0.002347
     9  H    0.000326  -0.000571   0.000218   0.000106  -0.000034  -0.000012
    10  H   -0.000952  -0.000202  -0.000168   0.000104   0.000005  -0.000016
    11  N   -0.016240   0.001376  -0.003781  -0.000200   0.001315   0.000882
    12  B   -2.671617  -0.205095  -0.318761   0.097858  -0.086971  -0.071930
    13  C    0.176905  -0.001256   0.031367  -0.001785   0.003383   0.003301
    14  H    0.034046   0.011962  -0.019045   0.004034   0.006462  -0.008043
    15  H    0.000353   0.007330  -0.000033  -0.000609  -0.000131   0.000110
    16  H    0.001824  -0.011970   0.004460   0.000896  -0.000004  -0.000211
    17  C    0.011760   0.000748   0.003756   0.000225   0.000243   0.000293
    18  H    0.000639   0.000389   0.000573  -0.000049   0.000042   0.000026
    19  H   -0.001084   0.000349  -0.000340   0.000038  -0.000052  -0.000028
    20  H    0.003224  -0.000360   0.000406   0.000038   0.000064   0.000035
    21  C    0.454371   0.014212   0.021871   0.003131  -0.042445   0.011255
    22  C   -0.181463  -0.039551  -0.037485   0.002282  -0.018776  -0.012250
    23  C    0.148260  -0.022120   0.003135  -0.000393   0.042420   0.000959
    24  C   -0.196942  -0.010263  -0.019670   0.003379  -0.001491  -0.006369
    25  H   -0.046796  -0.007790  -0.003545   0.000544  -0.002356  -0.001730
    26  H    0.065603  -0.000367   0.000063  -0.000713   0.001504  -0.001075
    27  H   -0.004722  -0.000775  -0.000632  -0.000051  -0.002646  -0.000340
    28  H    0.035502   0.000277  -0.001559  -0.000274  -0.004554   0.001078
    29  H    0.007931  -0.000652   0.000230   0.000039   0.000313   0.000069
    30  H   -0.072650   0.000729  -0.001980  -0.001705  -0.012570  -0.001461
    31  H   -0.000639   0.000782   0.000101  -0.000085  -0.000890   0.000185
    32  H   -0.035042  -0.002839  -0.004463   0.000537  -0.002115  -0.001086
    33  H    0.004527  -0.005769  -0.001464   0.000277  -0.001422  -0.001246
    34  C   -0.752342  -0.055747   0.044506  -0.034718   0.024877  -0.089843
    35  C    0.063314   0.400821   0.374691   0.416218   0.066745  -0.041372
    36  C    0.626918   0.157740   0.050607  -0.054939   0.351642   0.559091
    37  C    7.437531   0.024284   0.110567  -0.087256   0.007160  -0.023331
    38  H    0.024284   0.617704  -0.007871  -0.048292  -0.006584   0.008131
    39  H    0.110567  -0.007871   0.523935  -0.044103   0.004609   0.006762
    40  H   -0.087256  -0.048292  -0.044103   0.540899   0.006164  -0.002879
    41  H    0.007160  -0.006584   0.004609   0.006164   0.565200  -0.038137
    42  H   -0.023331   0.008131   0.006762  -0.002879  -0.038137   0.542982
    43  H    0.127525   0.006594   0.005323  -0.004601  -0.032620  -0.027576
    44  H    0.438437   0.002256   0.006709  -0.000124  -0.001181   0.000265
    45  H    0.285601  -0.002989  -0.005833   0.008888   0.005097  -0.004367
    46  H    0.454131   0.010983   0.005320  -0.005772   0.000572   0.007964
              43         44         45         46
     1  C    0.059161   0.002282   0.000863   0.004184
     2  C    0.000699   0.001987  -0.005057   0.001010
     3  C   -0.046330   0.013145  -0.003009   0.017784
     4  C    0.010833  -0.002281   0.001797  -0.000835
     5  C   -0.004035   0.000200   0.001421   0.000359
     6  C   -0.007554  -0.000440  -0.000487  -0.004508
     7  H    0.001691   0.000046   0.000079   0.000094
     8  H   -0.016650  -0.001846  -0.001102   0.002006
     9  H    0.000039  -0.000022   0.000027   0.000088
    10  H   -0.000589  -0.000016  -0.000042  -0.000051
    11  N    0.001874  -0.000949   0.000398  -0.000414
    12  B   -0.207849   0.027079  -0.022494  -0.101609
    13  C    0.006473   0.009310  -0.009235   0.017288
    14  H    0.007667  -0.007989   0.028728  -0.064240
    15  H    0.000129   0.000869  -0.001270   0.001863
    16  H   -0.000019  -0.000351   0.000293  -0.001943
    17  C    0.000453  -0.000051  -0.000791   0.001549
    18  H    0.000072   0.000014  -0.000043   0.000271
    19  H   -0.000021   0.000002  -0.000043  -0.000329
    20  H    0.000039  -0.000010   0.000086   0.000256
    21  C    0.030950   0.003615   0.092853  -0.071631
    22  C   -0.030514  -0.018882  -0.020087   0.042835
    23  C    0.014555   0.009563  -0.064354   0.009665
    24  C   -0.015096  -0.001116   0.001369  -0.020062
    25  H   -0.002257  -0.000495  -0.000677  -0.004963
    26  H    0.001844   0.001095   0.000243  -0.009640
    27  H   -0.000726  -0.000544  -0.001769  -0.000165
    28  H    0.000171  -0.001569  -0.003609   0.006481
    29  H    0.000237   0.000093   0.000569  -0.000290
    30  H   -0.004230  -0.000182  -0.030476  -0.003623
    31  H    0.000716   0.000190  -0.001271   0.000137
    32  H   -0.008751  -0.000913   0.000504  -0.000484
    33  H   -0.001924   0.000213   0.001465  -0.002642
    34  C   -0.058814  -0.067532   0.027909  -0.071848
    35  C   -0.000034  -0.035650   0.045955   0.005783
    36  C    0.444449  -0.024899   0.006372   0.097720
    37  C    0.127525   0.438437   0.285601   0.454131
    38  H    0.006594   0.002256  -0.002989   0.010983
    39  H    0.005323   0.006709  -0.005833   0.005320
    40  H   -0.004601  -0.000124   0.008888  -0.005772
    41  H   -0.032620  -0.001181   0.005097   0.000572
    42  H   -0.027576   0.000265  -0.004367   0.007964
    43  H    0.585948   0.008068   0.004379  -0.004560
    44  H    0.008068   0.536055  -0.047364  -0.024076
    45  H    0.004379  -0.047364   0.582267  -0.043168
    46  H   -0.004560  -0.024076  -0.043168   0.572218
 Mulliken charges:
               1
     1  C   -0.532945
     2  C    0.004681
     3  C    0.314570
     4  C   -0.263193
     5  C    0.208540
     6  C   -0.556727
     7  H    0.221426
     8  H    0.199001
     9  H    0.202738
    10  H    0.219522
    11  N    0.222232
    12  B   -0.776626
    13  C   -0.284485
    14  H   -0.058707
    15  H    0.205702
    16  H    0.199392
    17  C   -0.347380
    18  H    0.166358
    19  H    0.160627
    20  H    0.171336
    21  C    0.008583
    22  C   -0.678358
    23  C   -0.401177
    24  C   -0.409420
    25  H    0.174927
    26  H    0.155457
    27  H    0.174751
    28  H    0.179713
    29  H    0.168801
    30  H    0.158672
    31  H    0.176213
    32  H    0.197909
    33  H    0.233573
    34  C   -0.079032
    35  C   -0.438657
    36  C   -0.431106
    37  C   -0.439947
    38  H    0.154875
    39  H    0.226076
    40  H    0.182627
    41  H    0.154849
    42  H    0.174095
    43  H    0.154864
    44  H    0.176988
    45  H    0.172370
    46  H    0.176291
 Sum of Mulliken charges =  -0.00000
 Mulliken charges with hydrogens summed into heavy atoms:
               1
     1  C   -0.311519
     2  C    0.203682
     3  C    0.314570
     4  C   -0.263193
     5  C    0.411278
     6  C   -0.337206
    11  N    0.222232
    12  B   -0.776626
    13  C    0.061902
    17  C    0.150941
    21  C    0.008583
    22  C   -0.173223
    23  C    0.106009
    24  C    0.198275
    34  C   -0.079032
    35  C    0.124922
    36  C    0.052703
    37  C    0.085702
 Electronic spatial extent (au):  <R**2>=           9997.4182
 Charge=              0.0000 electrons
 Dipole moment (field-independent basis, Debye):
    X=              0.1553    Y=              1.3569    Z=              0.3475  Tot=              1.4093
 Quadrupole moment (field-independent basis, Debye-Ang):
   XX=           -112.8496   YY=            -99.9145   ZZ=           -120.2567
   XY=              1.4493   XZ=              2.6274   YZ=             -0.2767
 Traceless Quadrupole moment (field-independent basis, Debye-Ang):
   XX=             -1.8427   YY=             11.0924   ZZ=             -9.2497
   XY=              1.4493   XZ=              2.6274   YZ=             -0.2767
 Octapole moment (field-independent basis, Debye-Ang**2):
  XXX=           -787.1825  YYY=           -766.3189  ZZZ=            -32.2730  XYY=           -246.2526
  XXY=           -283.8630  XXZ=             -4.0034  XZZ=           -260.7373  YZZ=           -298.7512
  YYZ=            -13.1347  XYZ=              8.2252
 Hexadecapole moment (field-independent basis, Debye-Ang**3):
 XXXX=          -6469.2370 YYYY=          -5562.6204 ZZZZ=          -1541.5333 XXXY=          -1765.1781
 XXXZ=           -110.5180 YYYX=          -1627.4966 YYYZ=             45.7248 ZZZX=           -130.3992
 ZZZY=             60.5329 XXYY=          -2074.6224 XXZZ=          -1329.7557 YYZZ=          -1300.9424
 XXYZ=             36.3450 YYXZ=            -11.4428 ZZXY=           -588.3022
 N-N= 1.435251378905D+03 E-N=-4.506955814384D+03  KE= 7.026891957987D+02
 Breneman (CHELPG) radii used.
 Generate Potential Derived Charges using the Breneman model, NDens= 1.
 Grid spacing= 0.300 Box extension= 2.800
 NStep X,Y,Z=   48     43     44   Total possible points=       90816
 Number of Points to Fit=   20833

 **********************************************************************

            Electrostatic Properties Using The SCF Density.

 **********************************************************************

       Atomic Center    1 is at  -0.703724  0.887561  0.250498
       Atomic Center    2 is at   0.683158  0.953826  0.348938
       Atomic Center    3 is at   1.391131  2.146627  0.184953
       Atomic Center    4 is at   0.651598  3.323073 -0.061675
       Atomic Center    5 is at  -0.742894  3.258948 -0.136858
       Atomic Center    6 is at  -1.415497  2.050067  0.006490
       Atomic Center    7 is at  -1.214385 -0.061994  0.363782
       Atomic Center    8 is at   1.227561  0.032201  0.530200
       Atomic Center    9 is at  -1.320316  4.157902 -0.311133
       Atomic Center   10 is at  -2.497474  2.028394 -0.065946
       Atomic Center   11 is at   1.339041  4.543154 -0.278155
       Atomic Center   12 is at   2.971975  2.049251  0.164581
       Atomic Center   13 is at   2.185626  5.005415  0.808617
       Atomic Center   14 is at   2.881368  4.229970  1.127565
       Atomic Center   15 is at   2.784725  5.851802  0.465183
       Atomic Center   16 is at   1.602670  5.321839  1.688329
       Atomic Center   17 is at   0.586225  5.629978 -0.871567
       Atomic Center   18 is at   0.056239  5.279719 -1.759010
       Atomic Center   19 is at  -0.143705  6.086461 -0.182331
       Atomic Center   20 is at   1.285430  6.409982 -1.181512
       Atomic Center   21 is at   3.704701  2.198711 -1.267193
       Atomic Center   22 is at   4.417023  3.569543 -1.354906
       Atomic Center   23 is at   4.753876  1.096408 -1.518344
       Atomic Center   24 is at   2.696544  2.133542 -2.430640
       Atomic Center   25 is at   3.695133  4.387082 -1.311861
       Atomic Center   26 is at   5.157322  3.715325 -0.566015
       Atomic Center   27 is at   4.941258  3.637144 -2.316085
       Atomic Center   28 is at   4.308421  0.097169 -1.487488
       Atomic Center   29 is at   5.185529  1.229148 -2.517467
       Atomic Center   30 is at   5.578042  1.122107 -0.803023
       Atomic Center   31 is at   3.223531  2.221511 -3.388515
       Atomic Center   32 is at   2.146794  1.187376 -2.436998
       Atomic Center   33 is at   1.966826  2.943641 -2.371616
       Atomic Center   34 is at   3.716835  1.681422  1.553053
       Atomic Center   35 is at   2.844457  1.975908  2.790213
       Atomic Center   36 is at   3.990091  0.154681  1.557350
       Atomic Center   37 is at   5.063862  2.400867  1.755679
       Atomic Center   38 is at   2.595861  3.036992  2.879786
       Atomic Center   39 is at   1.903327  1.422769  2.765428
       Atomic Center   40 is at   3.381144  1.686919  3.701624
       Atomic Center   41 is at   4.687206 -0.151687  0.777545
       Atomic Center   42 is at   4.429573 -0.122148  2.522923
       Atomic Center   43 is at   3.074712 -0.432594  1.444874
       Atomic Center   44 is at   5.511856  2.081808  2.704254
       Atomic Center   45 is at   5.783303  2.182171  0.964918
       Atomic Center   46 is at   4.941923  3.487693  1.805017
   20833 points will be used for fitting atomic charges
 Fitting point charges to electrostatic potential
 Charges from ESP fit, RMS=   0.00278 RRMS=   0.31116:
 ESP charges:
               1
     1  C   -0.256552
     2  C    0.036699
     3  C   -0.157272
     4  C    0.219141
     5  C   -0.275138
     6  C   -0.032722
     7  H    0.123814
     8  H    0.060714
     9  H    0.128940
    10  H    0.093165
    11  N   -0.039257
    12  B    0.173283
    13  C   -0.193957
    14  H    0.083002
    15  H    0.105056
    16  H    0.059508
    17  C   -0.198378
    18  H    0.088193
    19  H    0.063804
    20  H    0.084560
    21  C    0.291289
    22  C   -0.313917
    23  C   -0.310216
    24  C   -0.078595
    25  H    0.030444
    26  H    0.052381
    27  H    0.071784
    28  H    0.060620
    29  H    0.059491
    30  H    0.064069
    31  H    0.022916
    32  H   -0.037588
    33  H   -0.041998
    34  C    0.400634
    35  C   -0.205762
    36  C   -0.242929
    37  C   -0.361329
    38  H    0.007518
    39  H   -0.025619
    40  H    0.054935
    41  H    0.033905
    42  H    0.044349
    43  H    0.051248
    44  H    0.065308
    45  H    0.079872
    46  H    0.060589
 Sum of ESP charges =  -0.00000
 ESP charges with hydrogens summed into heavy atoms:
               1
     1  C   -0.132738
     2  C    0.097413
     3  C   -0.157272
     4  C    0.219141
     5  C   -0.146198
     6  C    0.060442
    11  N   -0.039257
    12  B    0.173283
    13  C    0.053609
    17  C    0.038178
    21  C    0.291289
    22  C   -0.159308
    23  C   -0.126037
    24  C   -0.135265
    34  C    0.400634
    35  C   -0.168928
    36  C   -0.113427
    37  C   -0.155560
 Charge=  -0.00000 Dipole=     0.1526     1.3735     0.3630 Tot=     1.4288
 -----------------------------------------------------------------

              Electrostatic Properties (Atomic Units)

 -----------------------------------------------------------------
    Center     Electric         -------- Electric Field --------
               Potential          X             Y             Z
 -----------------------------------------------------------------
    1 Atom    -14.788014
    2 Atom    -14.780690
    3 Atom    -14.797252
    4 Atom    -14.740662
    5 Atom    -14.784474
    6 Atom    -14.782976
    7 Atom     -1.114974
    8 Atom     -1.112813
    9 Atom     -1.108191
   10 Atom     -1.112803
   11 Atom    -18.380722
   12 Atom    -11.463873
   13 Atom    -14.742909
   14 Atom     -1.103742
   15 Atom     -1.105258
   16 Atom     -1.113818
   17 Atom    -14.746906
   18 Atom     -1.110136
   19 Atom     -1.114363
   20 Atom     -1.108635
   21 Atom    -14.781808
   22 Atom    -14.793136
   23 Atom    -14.791539
   24 Atom    -14.805233
   25 Atom     -1.134956
   26 Atom     -1.131547
   27 Atom     -1.132940
   28 Atom     -1.130679
   29 Atom     -1.133259
   30 Atom     -1.129878
   31 Atom     -1.143396
   32 Atom     -1.144215
   33 Atom     -1.146397
   34 Atom    -14.775437
   35 Atom    -14.796752
   36 Atom    -14.784242
   37 Atom    -14.787084
   38 Atom     -1.133369
   39 Atom     -1.138476
   40 Atom     -1.135388
   41 Atom     -1.126375
   42 Atom     -1.125032
   43 Atom     -1.123208
   44 Atom     -1.128547
   45 Atom     -1.126732
   46 Atom     -1.124801
 -----------------------------------------------------------------
 Unable to Open any file for archive entry.
 1\1\GINC-IRENE5294\SP\RwB97XD\GenECP\C16H28B1N1\PENASFRA\10-Apr-2024\0
 \\# wb97xd/genecp scrf=(solvent=toluene,pcm) nosymm pop=(chelpg) scfcy
 c=300\\tbu_dimethylaniline_chelpg\\0,1\C,0,-0.703724,0.887561,0.250498
 \C,0,0.683158,0.953826,0.348938\C,0,1.391131,2.146627,0.184953\C,0,0.6
 51598,3.323073,-0.061675\C,0,-0.742894,3.258948,-0.136858\C,0,-1.41549
 7,2.050067,0.00649\H,0,-1.214385,-0.061994,0.363782\H,0,1.227561,0.032
 201,0.5302\H,0,-1.320316,4.157902,-0.311133\H,0,-2.497474,2.028394,-0.
 065946\N,0,1.339041,4.543154,-0.278155\B,0,2.971975,2.049251,0.164581\
 C,0,2.185626,5.005415,0.808617\H,0,2.881368,4.22997,1.127565\H,0,2.784
 725,5.851802,0.465183\H,0,1.60267,5.321839,1.688329\C,0,0.586225,5.629
 978,-0.871567\H,0,0.056239,5.279719,-1.75901\H,0,-0.143705,6.086461,-0
 .182331\H,0,1.28543,6.409982,-1.181512\C,0,3.704701,2.198711,-1.267193
 \C,0,4.417023,3.569543,-1.354906\C,0,4.753876,1.096408,-1.518344\C,0,2
 .696544,2.133542,-2.43064\H,0,3.695133,4.387082,-1.311861\H,0,5.157322
 ,3.715325,-0.566015\H,0,4.941258,3.637144,-2.316085\H,0,4.308421,0.097
 169,-1.487488\H,0,5.185529,1.229148,-2.517467\H,0,5.578042,1.122107,-0
 .803023\H,0,3.223531,2.221511,-3.388515\H,0,2.146794,1.187376,-2.43699
 8\H,0,1.966826,2.943641,-2.371616\C,0,3.716835,1.681422,1.553053\C,0,2
 .844457,1.975908,2.790213\C,0,3.990091,0.154681,1.55735\C,0,5.063862,2
 .400867,1.755679\H,0,2.595861,3.036992,2.879786\H,0,1.903327,1.422769,
 2.765428\H,0,3.381144,1.686919,3.701624\H,0,4.687206,-0.151687,0.77754
 5\H,0,4.429573,-0.122148,2.522923\H,0,3.074712,-0.432594,1.444874\H,0,
 5.511856,2.081808,2.704254\H,0,5.783303,2.182171,0.964918\H,0,4.941923
 ,3.487693,1.805017\\Version=AS64L-G16RevC.02\HF=-706.1397306\RMSD=3.55
 5e-09\Dipole=0.0611068,0.5338513,0.1367139\Quadrupole=-1.3699773,8.246
 9265,-6.8769492,1.0775317,1.9534401,-0.2056903\PG=C01 [X(C16H28B1N1)]\
 \@
 The archive entry for this job was punched.


      LET US REMEMBER, PLEASE, THAT THE SEARCH FOR THE CONSTITUTION
      OF THE WORLD IS ONE OF THE GREATEST AND NOBLEST PROBLEMS PRESENTED 
      BY NATURE.

                                                  -- GALILEO
 Job cpu time:       0 days  2 hours 46 minutes 37.9 seconds.
 Elapsed time:       0 days  0 hours  1 minutes 37.3 seconds.
 File lengths (MBytes):  RWF=    302 Int=      0 D2E=      0 Chk=     22 Scr=      1
 Normal termination of Gaussian 16 at Wed Apr 10 15:40:49 2024.
