 Entering Gaussian System, Link 0=/ccc/products/gaussian-16-C.02/system/default/g16/g16
 Input=tbu_indenoPy_chelpg.gjf
 Output=tbu_indenoPy_chelpg.log
 Initial command:
 /ccc/products/gaussian-16-C.02/system/default/g16/l1.exe "/ccc/scratch/cont003/gen7343/penasfra/flp/b-n_flp/tbu_indenoPy/reac/Gau-2458347.inp" -scrdir="/ccc/scratch/cont003/gen7343/penasfra/flp/b-n_flp/tbu_indenoPy/reac/"
 Entering Link 1 = /ccc/products/gaussian-16-C.02/system/default/g16/l1.exe PID=   2458396.
  
 Copyright (c) 1988-2021, Gaussian, Inc.  All Rights Reserved.
  
 This is part of the Gaussian(R) 16 program.  It is based on
 the Gaussian(R) 09 system (copyright 2009, Gaussian, Inc.),
 the Gaussian(R) 03 system (copyright 2003, Gaussian, Inc.),
 the Gaussian(R) 98 system (copyright 1998, Gaussian, Inc.),
 the Gaussian(R) 94 system (copyright 1995, Gaussian, Inc.),
 the Gaussian 92(TM) system (copyright 1992, Gaussian, Inc.),
 the Gaussian 90(TM) system (copyright 1990, Gaussian, Inc.),
 the Gaussian 88(TM) system (copyright 1988, Gaussian, Inc.),
 the Gaussian 86(TM) system (copyright 1986, Carnegie Mellon
 University), and the Gaussian 82(TM) system (copyright 1983,
 Carnegie Mellon University). Gaussian is a federally registered
 trademark of Gaussian, Inc.
  
 This software contains proprietary and confidential information,
 including trade secrets, belonging to Gaussian, Inc.
  
 This software is provided under written license and may be
 used, copied, transmitted, or stored only in accord with that
 written license.
  
 The following legend is applicable only to US Government
 contracts under FAR:
  
                    RESTRICTED RIGHTS LEGEND
  
 Use, reproduction and disclosure by the US Government is
 subject to restrictions as set forth in subparagraphs (a)
 and (c) of the Commercial Computer Software - Restricted
 Rights clause in FAR 52.227-19.
  
 Gaussian, Inc.
 340 Quinnipiac St., Bldg. 40, Wallingford CT 06492
  
  
 ---------------------------------------------------------------
 Warning -- This program may not be used in any manner that
 competes with the business of Gaussian, Inc. or will provide
 assistance to any competitor of Gaussian, Inc.  The licensee
 of this program is prohibited from giving any competitor of
 Gaussian, Inc. access to this program.  By using this program,
 the user acknowledges that Gaussian, Inc. is engaged in the
 business of creating and licensing software in the field of
 computational chemistry and represents and warrants to the
 licensee that it is not a competitor of Gaussian, Inc. and that
 it will not use this program in any manner prohibited above.
 ---------------------------------------------------------------
  

 Cite this work as:
 Gaussian 16, Revision C.02,
 M. J. Frisch, G. W. Trucks, H. B. Schlegel, G. E. Scuseria, 
 M. A. Robb, J. R. Cheeseman, G. Scalmani, V. Barone, 
 G. A. Petersson, H. Nakatsuji, X. Li, M. Caricato, A. V. Marenich, 
 J. Bloino, B. G. Janesko, R. Gomperts, B. Mennucci, H. P. Hratchian, 
 J. V. Ortiz, A. F. Izmaylov, J. L. Sonnenberg, D. Williams-Young, 
 F. Ding, F. Lipparini, F. Egidi, J. Goings, B. Peng, A. Petrone, 
 T. Henderson, D. Ranasinghe, V. G. Zakrzewski, J. Gao, N. Rega, 
 G. Zheng, W. Liang, M. Hada, M. Ehara, K. Toyota, R. Fukuda, 
 J. Hasegawa, M. Ishida, T. Nakajima, Y. Honda, O. Kitao, H. Nakai, 
 T. Vreven, K. Throssell, J. A. Montgomery, Jr., J. E. Peralta, 
 F. Ogliaro, M. J. Bearpark, J. J. Heyd, E. N. Brothers, K. N. Kudin, 
 V. N. Staroverov, T. A. Keith, R. Kobayashi, J. Normand, 
 K. Raghavachari, A. P. Rendell, J. C. Burant, S. S. Iyengar, 
 J. Tomasi, M. Cossi, J. M. Millam, M. Klene, C. Adamo, R. Cammi, 
 J. W. Ochterski, R. L. Martin, K. Morokuma, O. Farkas, 
 J. B. Foresman, and D. J. Fox, Gaussian, Inc., Wallingford CT, 2019.
 
 ******************************************
 Gaussian 16:  AS64L-G16RevC.02  7-Dec-2021
                10-Apr-2024 
 ******************************************
 %nprocshared=128
 Will use up to  128 processors via shared memory.
 %mem=30GB
 %chk=tbu_indenoPy_chelpg.chk
 ----------------------------------------------------------------------
 # wb97xd/genecp scrf=(solvent=toluene,pcm) nosymm pop=(chelpg) scfcyc=
 300
 ----------------------------------------------------------------------
 1/38=1,172=1/1;
 2/12=2,15=1,17=6,18=5,40=1/2;
 3/5=7,11=2,16=1,17=8,25=1,30=1,70=2201,72=13,74=-58/1,2,3;
 4//1;
 5/5=2,7=300,38=5,53=13/2;
 6/7=2,8=2,9=2,10=2,15=8,20=3,28=1/1,2;
 99/5=1,9=1/99;
 -------------------
 tbu_indenoPy_chelpg
 -------------------
 Symbolic Z-matrix:
 Charge =  0 Multiplicity = 1
 C                     0.70971   0.84493  -0.43586 
 C                     1.8461    0.79274   0.37307 
 C                     2.27083   1.8361    1.19491 
 C                     1.47668   2.98652   1.15534 
 C                     0.33745   3.0627    0.35029 
 C                    -0.06342   1.99539  -0.45155 
 H                     1.74353   3.85132   1.7546 
 H                    -0.24779   3.97629   0.35085 
 H                    -0.95185   2.07281  -1.06915 
 C                     0.54851  -0.4583   -1.19333 
 H                     0.56017  -0.30259  -2.27667 
 H                    -0.39485  -0.95664  -0.94832 
 C                     2.48259  -0.50401   0.18686 
 C                     1.74157  -1.25992  -0.72981 
 C                     4.02762  -2.12233   0.47452 
 C                     2.19618  -2.52592  -1.0413 
 C                     3.36926  -2.96064  -0.41906 
 H                     4.9413   -2.45099   0.96082 
 H                     1.67153  -3.16642  -1.74251 
 H                     3.77373  -3.94394  -0.62569 
 N                     3.59884  -0.89525   0.78854 
 B                     3.59714   1.64978   2.04783 
 C                     4.95843   2.15201   1.35657 
 C                     3.37985   1.23215   3.58409 
 C                     4.80297   2.32341  -0.16607 
 H                     4.60057   1.36426  -0.65199 
 H                     3.98907   3.00619  -0.42315 
 H                     5.72831   2.72621  -0.59535 
 C                     6.18826   1.25773   1.5891 
 H                     5.99164   0.23603   1.25463 
 H                     7.03738   1.64603   1.01312 
 H                     6.49474   1.22121   2.6337 
 C                     5.2298    3.54918   1.96471 
 H                     5.45482   3.4943    3.03327 
 H                     6.09293   4.00559   1.46566 
 H                     4.38018   4.22837   1.83029 
 C                     4.63053   0.79416   4.35761 
 H                     5.37984   1.58807   4.41481 
 H                     4.35719   0.53106   5.38694 
 H                     5.09679  -0.08372   3.90297 
 C                     2.80009   2.48778   4.28414 
 H                     2.64238   2.26538   5.34612 
 H                     3.47293   3.34853   4.2263 
 H                     1.83409   2.77908   3.86419 
 C                     2.33012   0.11066   3.71313 
 H                     1.38736   0.37731   3.22811 
 H                     2.68899  -0.81916   3.26537 
 H                     2.11968  -0.08061   4.77253 
 
                          Input orientation:                          
 ---------------------------------------------------------------------
 Center     Atomic      Atomic             Coordinates (Angstroms)
 Number     Number       Type             X           Y           Z
 ---------------------------------------------------------------------
      1          6           0        0.709711    0.844928   -0.435863
      2          6           0        1.846097    0.792743    0.373074
      3          6           0        2.270835    1.836103    1.194908
      4          6           0        1.476682    2.986517    1.155338
      5          6           0        0.337450    3.062699    0.350292
      6          6           0       -0.063417    1.995391   -0.451553
      7          1           0        1.743532    3.851317    1.754602
      8          1           0       -0.247791    3.976293    0.350847
      9          1           0       -0.951852    2.072811   -1.069149
     10          6           0        0.548510   -0.458302   -1.193329
     11          1           0        0.560169   -0.302586   -2.276672
     12          1           0       -0.394851   -0.956640   -0.948323
     13          6           0        2.482592   -0.504008    0.186859
     14          6           0        1.741569   -1.259920   -0.729814
     15          6           0        4.027624   -2.122331    0.474515
     16          6           0        2.196182   -2.525924   -1.041299
     17          6           0        3.369257   -2.960638   -0.419060
     18          1           0        4.941301   -2.450987    0.960819
     19          1           0        1.671529   -3.166424   -1.742507
     20          1           0        3.773734   -3.943935   -0.625693
     21          7           0        3.598837   -0.895246    0.788539
     22          5           0        3.597142    1.649775    2.047834
     23          6           0        4.958434    2.152011    1.356571
     24          6           0        3.379847    1.232151    3.584086
     25          6           0        4.802972    2.323409   -0.166072
     26          1           0        4.600571    1.364257   -0.651990
     27          1           0        3.989074    3.006193   -0.423148
     28          1           0        5.728308    2.726211   -0.595345
     29          6           0        6.188260    1.257726    1.589096
     30          1           0        5.991636    0.236029    1.254627
     31          1           0        7.037383    1.646033    1.013116
     32          1           0        6.494738    1.221214    2.633699
     33          6           0        5.229795    3.549181    1.964714
     34          1           0        5.454822    3.494303    3.033267
     35          1           0        6.092927    4.005592    1.465664
     36          1           0        4.380185    4.228374    1.830285
     37          6           0        4.630530    0.794158    4.357611
     38          1           0        5.379841    1.588074    4.414810
     39          1           0        4.357189    0.531058    5.386944
     40          1           0        5.096789   -0.083719    3.902969
     41          6           0        2.800088    2.487782    4.284141
     42          1           0        2.642383    2.265377    5.346115
     43          1           0        3.472929    3.348529    4.226295
     44          1           0        1.834091    2.779080    3.864192
     45          6           0        2.330123    0.110658    3.713130
     46          1           0        1.387355    0.377311    3.228107
     47          1           0        2.688990   -0.819163    3.265367
     48          1           0        2.119684   -0.080611    4.772528
 ---------------------------------------------------------------------
                    Distance matrix (angstroms):
                    1          2          3          4          5
     1  C    0.000000
     2  C    1.395878   0.000000
     3  C    2.465553   1.394422   0.000000
     4  C    2.776071   2.358188   1.398462   0.000000
     5  C    2.382252   2.725662   2.440470   1.397051   0.000000
     6  C    1.386196   2.402627   2.860933   2.436459   1.393842
     7  H    3.860738   3.357680   2.156941   1.085452   2.138006
     8  H    3.367665   3.810492   3.411206   2.144917   1.084971
     9  H    2.160912   3.398102   3.945592   3.417745   2.158006
    10  C    1.515965   2.387983   3.732877   4.271360   3.850294
    11  H    2.174334   3.142373   4.421791   4.841166   4.275007
    12  H    2.174470   3.135009   4.415737   4.845257   4.286928
    13  C    2.313119   1.456491   2.556780   3.759464   4.165302
    14  C    2.362525   2.332534   3.683753   4.653621   4.671532
    15  C    4.543342   3.642390   4.390270   5.750752   6.365324
    16  C    3.733469   3.624439   4.902395   5.977449   6.051786
    17  C    4.642822   4.127392   5.178817   6.436554   6.787072
    18  H    5.542574   4.521893   5.056217   6.450416   7.208947
    19  H    4.327049   4.492345   5.832054   6.803981   6.705337
    20  H    5.688364   5.210512   6.243567   7.515297   7.864701
    21  N    3.588093   2.468606   3.064146   4.439163   5.147236
    22  B    3.892787   2.570114   1.587857   2.660785   3.937460
    23  C    4.793009   3.535748   2.710926   3.586013   4.816165
    24  C    4.841442   3.585536   2.702376   3.549458   4.802552
    25  C    4.360445   3.372940   2.915725   3.640061   4.555663
    26  H    3.931311   2.994079   3.010206   3.956873   4.697177
    27  H    3.927525   3.182087   2.634305   2.967174   3.733063
    28  H    5.361994   4.443838   3.993923   4.605320   5.483503
    29  C    5.855370   4.533133   3.979463   5.037443   6.246963
    30  H    5.579180   4.274641   4.050699   5.287708   6.385742
    31  H    6.540699   5.299737   4.773799   5.721758   6.880071
    32  H    6.559751   5.186895   4.504394   5.521117   6.820353
    33  C    5.788516   4.645501   3.504666   3.880404   5.174752
    34  H    6.447490   5.234305   4.033232   4.428325   5.794146
    35  H    6.525689   5.436149   4.403224   4.737566   5.937897
    36  H    5.482291   4.510945   3.252080   3.229256   4.460144
    37  C    6.192963   4.861029   4.081238   5.000775   6.295667
    38  H    6.774320   5.427295   4.482768   5.273941   6.642329
    39  H    6.878059   5.613640   4.860986   5.677419   6.923537
    40  H    6.239736   4.878047   4.359510   5.484615   6.721069
    41  C    5.417295   4.368032   3.201274   3.433591   4.676567
    42  H    6.259726   5.247272   4.189850   4.409253   5.559378
    43  H    5.969850   4.901626   3.594686   3.680602   4.993629
    44  H    4.847231   4.016663   2.864442   2.740194   3.829865
    45  C    4.514314   3.443181   3.053214   3.942236   4.898364
    46  H    3.755335   2.921342   2.653773   3.333513   4.073749
    47  H    4.515069   3.416734   3.392947   4.517202   5.394094
    48  H    5.474667   4.493639   4.061527   4.785895   5.710773
                    6          7          8          9         10
     6  C    0.000000
     7  H    3.402447   0.000000
     8  H    2.145184   2.439573   0.000000
     9  H    1.084774   4.289726   2.476961   0.000000
    10  C    2.635393   5.356416   4.762794   2.945003   0.000000
    11  H    3.000103   5.908166   5.085810   3.063793   1.094539
    12  H    3.011829   5.915652   5.103263   3.082600   1.094668
    13  C    3.624462   4.687524   5.249284   4.473584   2.376485
    14  C    3.732620   5.683051   5.704674   4.298460   1.510241
    15  C    5.877912   6.522283   7.449005   6.691584   4.201777
    16  C    5.088799   6.977905   7.084483   5.573083   2.648206
    17  C    6.028808   7.332838   7.861094   6.665599   3.849388
    18  H    6.841950   7.111600   8.283035   7.701608   5.282780
    19  H    5.596511   7.841151   7.686633   5.897891   2.982732
    20  H    7.073164   8.399612   8.936236   7.663488   4.782668
    21  N    4.827599   5.187031   6.222541   5.741876   3.663771
    22  B    4.445906   2.892861   4.803744   5.530632   4.923747
    23  C    5.339741   3.658096   5.607519   6.389200   5.723911
    24  C    5.359569   3.589508   5.580673   6.412716   5.804980
    25  C    4.885779   3.922201   5.339423   5.830639   5.185906
    26  H    4.710763   4.487742   5.597770   5.612974   4.475932
    27  H    4.176746   3.240261   4.414882   5.069642   4.943014
    28  H    5.839422   4.760940   6.178329   6.728741   6.109748
    29  C    6.617542   5.148758   7.095535   7.662364   6.518698
    30  H    6.532233   5.600595   7.330542   7.548889   6.008511
    31  H    7.258696   5.782555   7.677400   8.267154   7.169526
    32  H    7.288863   5.501292   7.633058   8.359905   7.268050
    33  C    6.022516   3.505633   5.726337   7.042496   6.924419
    34  H    6.696392   3.941588   6.320402   7.739246   7.586771
    35  H    6.754051   4.361711   6.438042   7.732388   7.598497
    36  H    5.471617   2.664552   4.865228   6.440791   6.766750
    37  C    6.826724   4.945365   7.069523   7.889719   7.003176
    38  H    7.312760   5.041996   7.340955   8.390418   7.679885
    39  H    7.468204   5.572184   7.644459   8.499650   7.667129
    40  H    7.064863   5.598600   7.593800   8.121492   6.841009
    41  C    5.555979   3.061716   5.193846   6.550341   6.614506
    42  H    6.403686   4.027667   6.019389   7.356033   7.386952
    43  H    6.018221   3.058247   5.408969   7.017683   7.239925
    44  H    4.779159   2.368177   4.255719   5.709479   6.141000
    45  C    5.160023   4.262916   5.735305   6.123038   5.250829
    46  H    4.273502   3.790356   4.889274   5.178129   4.577227
    47  H    5.414144   4.998968   6.333680   6.356672   4.959017
    48  H    6.030484   4.970858   6.450943   6.942388   6.180832
                   11         12         13         14         15
    11  H    0.000000
    12  H    1.761920   0.000000
    13  C    3.131336   3.126211   0.000000
    14  C    2.169093   2.168874   1.400288   0.000000
    15  C    4.785786   4.789738   2.255846   2.724006   0.000000
    16  C    3.024222   3.030635   2.382970   1.380747   2.411381
    17  C    4.290331   4.297050   2.681109   2.374527   1.390928
    18  H    5.855877   5.861093   3.230324   3.809877   1.085961
    19  H    3.118016   3.127907   3.386552   2.159910   3.399485
    20  H    5.129537   5.138591   3.763029   3.368156   2.143166
    21  N    4.356635   4.355457   1.327060   2.426485   1.337239
    22  B    5.633495   5.630840   3.056833   4.429989   4.109675
    23  C    6.210494   6.605597   3.814768   5.132494   4.462559
    24  C    6.682401   6.291413   3.919243   5.244436   4.619697
    25  C    5.417736   6.195805   3.674644   4.746603   4.558083
    26  H    4.662918   5.516214   2.946170   3.881527   3.708582
    27  H    5.112823   5.932845   3.868218   4.831671   5.206635
    28  H    6.221747   7.154094   4.645517   5.639274   5.248360
    29  C    7.003866   7.394543   4.336122   5.611501   4.163583
    30  H    6.500847   6.860223   3.741814   4.923306   3.166667
    31  H    7.521577   8.115371   5.104067   6.287131   4.852763
    32  H    7.851931   8.064761   5.006070   6.329444   4.682736
    33  C    7.391270   7.773342   5.209245   6.523469   5.985980
    34  H    8.159010   8.359583   5.737829   7.109969   6.334878
    35  H    7.948389   8.517179   5.916617   7.174960   6.542117
    36  H    7.210355   7.576675   5.356972   6.605889   6.503373
    37  C    7.860305   7.514831   4.867653   6.200583   4.893653
    38  H    8.460483   8.281656   5.535922   6.914857   5.578667
    39  H    8.593214   8.057961   5.623732   6.889398   5.592946
    40  H    7.669210   7.379372   4.562909   5.839831   4.129570
    41  C    7.473129   7.032095   5.083240   6.348660   6.105181
    42  H    8.308847   7.695852   5.857726   7.082097   6.700997
    43  H    8.006459   7.763432   5.669202   6.985587   6.656865
    44  H    6.987829   6.487225   4.972122   6.117759   6.350223
    45  C    6.259492   5.503976   3.582687   4.686644   4.284434
    46  H    5.607949   4.732679   3.350441   4.297805   4.560866
    47  H    5.959272   5.223424   3.101473   4.129570   3.358429
    48  H    7.223059   6.310186   4.619451   5.639992   5.126575
                   16         17         18         19         20
    16  C    0.000000
    17  C    1.397234   0.000000
    18  H    3.398495   2.152936   0.000000
    19  H    1.084986   2.162438   4.302468   0.000000
    20  H    2.161517   1.083131   2.471665   2.504209   0.000000
    21  N    2.823979   2.403507   2.062091   3.908831   3.365285
    22  B    5.379767   5.233871   4.450238   6.424208   6.202300
    23  C    5.938257   5.640703   4.620011   6.978093   6.518699
    24  C    6.076049   5.796962   4.783845   7.116067   6.683506
    25  C    5.574711   5.480939   4.907533   6.513781   6.367903
    26  H    4.589788   4.502789   4.156120   5.504143   5.372267
    27  H    5.848153   5.998938   5.709896   6.724056   6.956413
    28  H    6.345054   6.159257   5.463003   7.245453   6.950693
    29  C    6.096858   5.456561   3.962851   7.146575   6.147561
    30  H    5.225431   4.460581   2.899928   6.262813   5.091836
    31  H    6.712903   6.060338   4.602376   7.716579   6.677188
    32  H    6.784117   6.047798   4.323974   7.852763   6.686274
    33  C    7.426023   7.177863   6.090406   8.456009   8.060838
    34  H    7.966427   7.611465   6.317058   9.026993   8.458217
    35  H    8.008133   7.713555   6.577881   9.015483   8.540926
    36  H    7.657441   7.600225   6.759045   8.647815   8.554896
    37  C    6.789494   6.205311   4.708051   7.851964   6.929426
    38  H    7.538554   6.935382   5.332578   8.617969   7.654370
    39  H    7.438911   6.846724   5.368832   8.468366   7.517831
    40  H    6.230864   5.471834   3.779468   7.287446   6.095943
    41  C    7.339091   7.220065   6.326192   8.340514   8.149935
    42  H    7.997169   7.815166   6.838124   8.983072   8.688959
    43  H    7.992924   7.835538   6.815705   9.017552   8.764263
    44  H    7.234502   7.324435   6.740766   8.173770   8.313857
    45  C    5.438207   5.252395   4.577717   6.398202   6.111393
    46  H    5.225974   5.326506   5.076455   6.111122   6.262567
    47  H    4.658676   4.315516   3.612021   5.623492   5.106977
    48  H    6.307614   6.067007   5.301823   7.222795   6.841195
                   21         22         23         24         25
    21  N    0.000000
    22  B    2.839535   0.000000
    23  C    3.384810   1.607234   0.000000
    24  C    3.519781   1.606766   2.880955   0.000000
    25  C    3.566646   2.609442   1.540126   4.156900   0.000000
    26  H    2.860760   2.894381   2.186993   4.410438   1.094100
    27  H    4.103864   2.845915   2.199247   4.424512   1.093029
    28  H    4.423204   3.561878   2.175405   5.021467   1.096709
    29  C    3.461400   2.660458   1.538274   3.444971   2.476957
    30  H    2.687472   2.891618   2.179194   3.638692   2.790782
    31  H    4.281604   3.592480   2.167027   4.489850   2.615705
    32  H    4.033641   2.987133   2.204012   3.256670   3.451901
    33  C    4.878150   2.506034   1.547759   3.378358   2.494984
    34  H    5.267981   2.797202   2.204418   3.118694   3.468670
    35  H    5.540505   3.481054   2.175945   4.420463   2.675124
    36  H    5.286513   2.703638   2.206821   3.613011   2.791609
    37  C    4.081268   2.671150   3.310216   1.534401   4.778290
    38  H    4.742225   2.963849   3.138222   2.194712   4.675251
    39  H    4.873886   3.602618   4.385532   2.167262   5.852113
    40  H    3.549945   2.948808   3.391426   2.186570   4.736844
    41  C    4.929717   2.517662   3.652652   1.550099   4.882925
    42  H    5.628129   3.488436   4.614478   2.171671   5.920787
    43  H    5.462934   2.765300   3.445823   2.213629   4.702422
    44  H    5.106333   2.771793   4.054984   2.204725   5.026422
    45  C    3.342860   2.597581   4.077807   1.541532   5.104846
    46  H    3.530091   2.809870   4.405089   2.197157   5.193668
    47  H    2.639751   2.898755   4.197827   2.187865   5.110719
    48  H    4.327088   3.549799   4.971103   2.173419   6.113028
                   26         27         28         29         30
    26  H    0.000000
    27  H    1.766989   0.000000
    28  H    1.769157   1.770022   0.000000
    29  C    2.748558   3.455819   2.672038   0.000000
    30  H    2.615941   3.807754   3.113317   1.092884   0.000000
    31  H    2.964798   3.633879   2.338292   1.097062   1.772012
    32  H    3.795271   4.336913   3.644058   1.089246   1.767920
    33  C    3.466548   2.745198   2.734903   2.512073   3.472982
    34  H    4.341424   3.785957   3.719084   2.761492   3.750744
    35  H    3.699762   2.998768   2.453064   2.752288   3.776824
    36  H    3.796502   2.593194   3.155568   3.485980   4.343613
    37  C    5.042025   5.306621   5.428602   3.210310   3.434039
    38  H    5.131259   5.229831   5.149606   2.957589   3.491286
    39  H    6.100998   6.326055   6.518163   4.278378   4.453594
    40  H    4.805259   5.430458   5.341287   2.888735   2.813664
    41  C    5.373029   4.882725   5.695674   4.500668   4.943109
    42  H    6.373679   5.970492   6.710905   5.263440   5.663570
    43  H    5.385775   4.690514   5.359312   4.324269   4.986216
    44  H    5.481882   4.803834   5.920742   5.142895   5.528302
    45  C    5.077472   5.314606   6.078794   4.551099   4.412101
    46  H    5.133612   5.197271   6.243396   5.148803   5.011386
    47  H    4.875156   5.470714   6.059062   4.400937   4.007989
    48  H    6.137413   6.325980   7.050849   5.336543   5.240983
                   31         32         33         34         35
    31  H    0.000000
    32  H    1.761029   0.000000
    33  C    2.791932   2.732591   0.000000
    34  H    3.162532   2.531405   1.093368   0.000000
    35  H    2.581534   3.046066   1.096521   1.768042   0.000000
    36  H    3.794331   3.762954   1.095998   1.772250   1.765238
    37  C    4.207645   2.574786   3.698003   3.118353   4.562376
    38  H    3.784485   2.133058   3.141882   2.355418   3.879478
    39  H    5.249474   3.553279   4.645661   3.940230   5.519204
    40  H    3.887055   2.295247   4.119768   3.699569   4.863662
    41  C    5.418747   4.240117   3.522753   3.102480   4.592423
    42  H    6.202781   4.825776   4.447103   3.843090   5.476541
    43  H    5.091988   4.024073   2.870817   2.317858   3.862280
    44  H    6.040420   5.065836   3.966343   3.783077   5.039340
    45  C    5.639659   4.443256   4.825816   4.655643   5.863472
    46  H    6.199892   5.210648   5.140162   5.128147   6.197825
    47  H    5.482549   4.364156   5.218220   5.129297   6.172842
    48  H    6.426371   5.040876   5.543645   5.189237   6.589314
                   36         37         38         39         40
    36  H    0.000000
    37  C    4.271287   0.000000
    38  H    3.827567   1.093179   0.000000
    39  H    5.130351   1.097025   1.762993   0.000000
    40  H    4.837736   1.093053   1.771155   1.768372   0.000000
    41  C    3.398202   2.494850   2.735265   2.733040   3.468825
    42  H    4.385701   2.663523   2.969805   2.439280   3.691210
    43  H    2.708894   2.807507   2.602125   3.172880   3.810746
    44  H    3.566486   3.464599   3.780743   3.706535   4.340774
    45  C    4.970256   2.484834   3.460620   2.662214   2.779975
    46  H    5.073620   3.459440   4.337529   3.674797   3.798406
    47  H    5.513368   2.750523   3.789022   3.017793   2.597096
    48  H    5.686300   2.691045   3.679823   2.399599   3.101499
                   41         42         43         44         45
    41  C    0.000000
    42  H    1.096414   0.000000
    43  H    1.094051   1.765509   0.000000
    44  H    1.092869   1.764461   1.772338   0.000000
    45  C    2.489506   2.721573   3.471765   2.718335   0.000000
    46  H    2.750475   3.102555   3.764855   2.524415   1.093235
    47  H    3.462099   3.721031   4.348287   3.746571   1.092632
    48  H    2.701502   2.471007   3.726747   3.014045   1.096901
                   46         47         48
    46  H    0.000000
    47  H    1.768387   0.000000
    48  H    1.769529   1.772316   0.000000
 Symmetry turned off by external request.
 Stoichiometry    C20H26BN
 Framework group  C1[X(C20H26BN)]
 Deg. of freedom   138
 Full point group                 C1      NOp   1
 Rotational constants (GHZ):           0.3851394           0.2713739           0.2178496
 General basis read from cards:  (5D, 7F)
 ======================================================================================================
                                       Pseudopotential Parameters
 ======================================================================================================
  Center     Atomic      Valence      Angular      Power
  Number     Number     Electrons     Momentum     of R      Exponent        Coefficient   SO-Coeffient
 ======================================================================================================
    1          6
                                   No pseudopotential on this center.
    2          6
                                   No pseudopotential on this center.
    3          6
                                   No pseudopotential on this center.
    4          6
                                   No pseudopotential on this center.
    5          6
                                   No pseudopotential on this center.
    6          6
                                   No pseudopotential on this center.
    7          1
                                   No pseudopotential on this center.
    8          1
                                   No pseudopotential on this center.
    9          1
                                   No pseudopotential on this center.
   10          6
                                   No pseudopotential on this center.
   11          1
                                   No pseudopotential on this center.
   12          1
                                   No pseudopotential on this center.
   13          6
                                   No pseudopotential on this center.
   14          6
                                   No pseudopotential on this center.
   15          6
                                   No pseudopotential on this center.
   16          6
                                   No pseudopotential on this center.
   17          6
                                   No pseudopotential on this center.
   18          1
                                   No pseudopotential on this center.
   19          1
                                   No pseudopotential on this center.
   20          1
                                   No pseudopotential on this center.
   21          7
                                   No pseudopotential on this center.
   22          5
                                   No pseudopotential on this center.
   23          6
                                   No pseudopotential on this center.
   24          6
                                   No pseudopotential on this center.
   25          6
                                   No pseudopotential on this center.
   26          1
                                   No pseudopotential on this center.
   27          1
                                   No pseudopotential on this center.
   28          1
                                   No pseudopotential on this center.
   29          6
                                   No pseudopotential on this center.
   30          1
                                   No pseudopotential on this center.
   31          1
                                   No pseudopotential on this center.
   32          1
                                   No pseudopotential on this center.
   33          6
                                   No pseudopotential on this center.
   34          1
                                   No pseudopotential on this center.
   35          1
                                   No pseudopotential on this center.
   36          1
                                   No pseudopotential on this center.
   37          6
                                   No pseudopotential on this center.
   38          1
                                   No pseudopotential on this center.
   39          1
                                   No pseudopotential on this center.
   40          1
                                   No pseudopotential on this center.
   41          6
                                   No pseudopotential on this center.
   42          1
                                   No pseudopotential on this center.
   43          1
                                   No pseudopotential on this center.
   44          1
                                   No pseudopotential on this center.
   45          6
                                   No pseudopotential on this center.
   46          1
                                   No pseudopotential on this center.
   47          1
                                   No pseudopotential on this center.
   48          1
                                   No pseudopotential on this center.
 ======================================================================================================
   666 basis functions,  1026 primitive gaussians,   688 cartesian basis functions
    79 alpha electrons       79 beta electrons
       nuclear repulsion energy      1846.0290339643 Hartrees.
 NAtoms=   48 NActive=   48 NUniq=   48 SFac= 1.00D+00 NAtFMM=   60 NAOKFM=F Big=F
 Integral buffers will be    131072 words long.
 Raffenetti 2 integral format.
 Two-electron integral symmetry is turned off.
 Nuclear repulsion after empirical dispersion term =     1845.9780479571 Hartrees.
 ------------------------------------------------------------------------------
 Polarizable Continuum Model (PCM)
 =================================
 Model                : PCM.
 Atomic radii         : UFF (Universal Force Field).
 Polarization charges : Total charges.
 Charge compensation  : None.
 Solution method      : On-the-fly selection.
 Cavity type          : Scaled VdW (van der Waals Surface) (Alpha=1.100).
 Cavity algorithm     : GePol (No added spheres)
                        Default sphere list used, NSphG=   48.
                        Lebedev-Laikov grids with approx.  5.0 points / Ang**2.
                        Smoothing algorithm: York/Karplus (Gamma=1.0000).
                        Polarization charges: spherical gaussians, with
                                              point-specific exponents (IZeta= 3).
                        Self-potential: point-specific (ISelfS= 7).
                        Self-field    : sphere-specific E.n sum rule (ISelfD= 2).
 Solvent              : Toluene, Eps=   2.374100 Eps(inf)=   2.238315
 ------------------------------------------------------------------------------
 One-electron integrals computed using PRISM.
   1 Symmetry operations used in ECPInt.
 ECPInt:  NShTT=   34453 NPrTT=  110220 LenC2=   32095 LenP2D=   72298.
 LDataN:  DoStor=T MaxTD1= 4 Len=   56
 Number of processors reduced to  67 by ecpmxn.
 NBasis=   666 RedAO= T EigKep=  1.69D-06  NBF=   666
 NBsUse=   658 1.00D-06 EigRej=  8.68D-07 NBFU=   658
 ExpMin= 3.15D-02 ExpMax= 6.29D+03 ExpMxC= 9.49D+02 IAcc=3 IRadAn=         5 AccDes= 0.00D+00
 Harris functional with IExCor= 4639 and IRadAn=       5 diagonalized for initial guess.
 HarFok:  IExCor= 4639 AccDes= 0.00D+00 IRadAn=         5 IDoV= 1 UseB2=F ITyADJ=14
 ICtDFT=  3500011 ScaDFX=  1.000000  1.000000  1.000000  1.000000
 FoFCou: FMM=F IPFlag=           0 FMFlag=      100000 FMFlg1=           0
         NFxFlg=           0 DoJE=T BraDBF=F KetDBF=T FulRan=T
         wScrn=  0.000000 ICntrl=       500 IOpCl=  0 I1Cent=   200000004 NGrid=           0
         NMat0=    1 NMatS0=      1 NMatT0=    0 NMatD0=    1 NMtDS0=    0 NMtDT0=    0
 Symmetry not used in FoFCou.
 Requested convergence on RMS density matrix=1.00D-08 within 300 cycles.
 Requested convergence on MAX density matrix=1.00D-06.
 Requested convergence on             energy=1.00D-06.
 No special actions if energy rises.
 Inv3:  Mode=1 IEnd=    24865923.
 Iteration    1 A*A^-1 deviation from unit magnitude is 4.66D-15 for   2867.
 Iteration    1 A*A^-1 deviation from orthogonality  is 3.05D-15 for   2867   2027.
 Iteration    1 A^-1*A deviation from unit magnitude is 4.77D-15 for   2847.
 Iteration    1 A^-1*A deviation from orthogonality  is 3.75D-15 for   2872   2363.
 Error on total polarization charges =  0.01048
 SCF Done:  E(RwB97XD) =  -857.368097055     A.U. after   15 cycles
            NFock= 15  Conv=0.75D-08     -V/T= 2.0047

 **********************************************************************

            Population analysis using the SCF Density.

 **********************************************************************

 Alpha  occ. eigenvalues --  -14.44011 -10.32728 -10.32655 -10.31230 -10.30611
 Alpha  occ. eigenvalues --  -10.30391 -10.29978 -10.29955 -10.29077 -10.28892
 Alpha  occ. eigenvalues --  -10.28800 -10.28722 -10.27513 -10.26900 -10.26859
 Alpha  occ. eigenvalues --  -10.26788 -10.26611 -10.25838 -10.25593 -10.25463
 Alpha  occ. eigenvalues --  -10.25422  -6.84399  -1.06413  -0.98260  -0.93247
 Alpha  occ. eigenvalues --   -0.90388  -0.90306  -0.88809  -0.86048  -0.82905
 Alpha  occ. eigenvalues --   -0.80296  -0.77811  -0.77274  -0.76886  -0.76216
 Alpha  occ. eigenvalues --   -0.74934  -0.71058  -0.69267  -0.67979  -0.65678
 Alpha  occ. eigenvalues --   -0.62746  -0.61847  -0.59426  -0.58295  -0.56585
 Alpha  occ. eigenvalues --   -0.55354  -0.53823  -0.53467  -0.53194  -0.52514
 Alpha  occ. eigenvalues --   -0.52001  -0.51189  -0.51056  -0.50356  -0.49952
 Alpha  occ. eigenvalues --   -0.49113  -0.48880  -0.48609  -0.46996  -0.46147
 Alpha  occ. eigenvalues --   -0.45722  -0.45240  -0.45016  -0.44340  -0.43750
 Alpha  occ. eigenvalues --   -0.43440  -0.43202  -0.42818  -0.41137  -0.40156
 Alpha  occ. eigenvalues --   -0.39552  -0.39113  -0.37916  -0.36318  -0.35877
 Alpha  occ. eigenvalues --   -0.35084  -0.34938  -0.31750  -0.29808
 Alpha virt. eigenvalues --    0.01139   0.03365   0.03788   0.04350   0.04680
 Alpha virt. eigenvalues --    0.05156   0.05536   0.05706   0.05733   0.06395
 Alpha virt. eigenvalues --    0.06706   0.06958   0.07514   0.07612   0.07639
 Alpha virt. eigenvalues --    0.08342   0.08475   0.09153   0.09241   0.09697
 Alpha virt. eigenvalues --    0.09851   0.09989   0.10133   0.11141   0.11496
 Alpha virt. eigenvalues --    0.12054   0.12166   0.12843   0.13139   0.13360
 Alpha virt. eigenvalues --    0.13892   0.14218   0.14562   0.15179   0.15355
 Alpha virt. eigenvalues --    0.15506   0.15554   0.15831   0.16115   0.16350
 Alpha virt. eigenvalues --    0.16650   0.17157   0.17333   0.17597   0.17670
 Alpha virt. eigenvalues --    0.18103   0.18287   0.18364   0.18469   0.18794
 Alpha virt. eigenvalues --    0.18993   0.19089   0.19404   0.19661   0.19796
 Alpha virt. eigenvalues --    0.20489   0.20654   0.20711   0.21041   0.21350
 Alpha virt. eigenvalues --    0.21429   0.21637   0.21929   0.22041   0.22195
 Alpha virt. eigenvalues --    0.22374   0.22647   0.23310   0.23417   0.23678
 Alpha virt. eigenvalues --    0.23877   0.24214   0.24343   0.24420   0.24928
 Alpha virt. eigenvalues --    0.25095   0.25325   0.25629   0.25880   0.26288
 Alpha virt. eigenvalues --    0.26445   0.26760   0.27098   0.27131   0.27366
 Alpha virt. eigenvalues --    0.27608   0.27677   0.27957   0.28327   0.28697
 Alpha virt. eigenvalues --    0.28849   0.28898   0.29324   0.29785   0.30090
 Alpha virt. eigenvalues --    0.30354   0.30548   0.30943   0.31405   0.31466
 Alpha virt. eigenvalues --    0.31731   0.31841   0.32162   0.32869   0.33041
 Alpha virt. eigenvalues --    0.33281   0.33489   0.33525   0.34202   0.34447
 Alpha virt. eigenvalues --    0.34748   0.35073   0.35185   0.35766   0.36170
 Alpha virt. eigenvalues --    0.36282   0.36458   0.36611   0.37188   0.37401
 Alpha virt. eigenvalues --    0.37544   0.38022   0.38302   0.38592   0.38756
 Alpha virt. eigenvalues --    0.38995   0.39106   0.39631   0.40016   0.40182
 Alpha virt. eigenvalues --    0.40324   0.40730   0.40866   0.41522   0.42527
 Alpha virt. eigenvalues --    0.42839   0.43266   0.43531   0.43713   0.44177
 Alpha virt. eigenvalues --    0.44402   0.44590   0.44746   0.45470   0.46056
 Alpha virt. eigenvalues --    0.46169   0.47124   0.47476   0.47998   0.48381
 Alpha virt. eigenvalues --    0.48916   0.49567   0.50447   0.50594   0.51698
 Alpha virt. eigenvalues --    0.52898   0.53428   0.55705   0.56352   0.56648
 Alpha virt. eigenvalues --    0.57579   0.58029   0.58693   0.59285   0.59673
 Alpha virt. eigenvalues --    0.61292   0.61719   0.62238   0.62686   0.63167
 Alpha virt. eigenvalues --    0.63374   0.64296   0.64971   0.65680   0.66080
 Alpha virt. eigenvalues --    0.66119   0.66755   0.67217   0.67627   0.67964
 Alpha virt. eigenvalues --    0.68630   0.68936   0.69335   0.69614   0.70588
 Alpha virt. eigenvalues --    0.71322   0.71645   0.72210   0.72502   0.73285
 Alpha virt. eigenvalues --    0.73604   0.74133   0.74578   0.74798   0.75305
 Alpha virt. eigenvalues --    0.76098   0.76401   0.76843   0.77034   0.77531
 Alpha virt. eigenvalues --    0.77761   0.78277   0.78958   0.79154   0.79605
 Alpha virt. eigenvalues --    0.79869   0.80574   0.80703   0.81902   0.82207
 Alpha virt. eigenvalues --    0.82601   0.82962   0.83388   0.83854   0.84359
 Alpha virt. eigenvalues --    0.84883   0.85105   0.85583   0.86007   0.86228
 Alpha virt. eigenvalues --    0.86685   0.86889   0.87333   0.87753   0.88372
 Alpha virt. eigenvalues --    0.88982   0.89383   0.89664   0.90042   0.90373
 Alpha virt. eigenvalues --    0.91210   0.91427   0.91947   0.92421   0.93355
 Alpha virt. eigenvalues --    0.93546   0.94033   0.94595   0.95257   0.95938
 Alpha virt. eigenvalues --    0.96544   0.97187   0.97365   0.99146   0.99554
 Alpha virt. eigenvalues --    1.00453   1.01026   1.01286   1.01938   1.02240
 Alpha virt. eigenvalues --    1.03293   1.05230   1.05945   1.06598   1.07727
 Alpha virt. eigenvalues --    1.08351   1.08898   1.09877   1.11041   1.11498
 Alpha virt. eigenvalues --    1.12815   1.13093   1.13972   1.14159   1.15101
 Alpha virt. eigenvalues --    1.15214   1.15971   1.16906   1.17505   1.18073
 Alpha virt. eigenvalues --    1.19309   1.19903   1.20715   1.21489   1.22508
 Alpha virt. eigenvalues --    1.24154   1.25000   1.25395   1.26388   1.27420
 Alpha virt. eigenvalues --    1.28594   1.29178   1.31418   1.32412   1.33749
 Alpha virt. eigenvalues --    1.35091   1.35942   1.36787   1.39198   1.40389
 Alpha virt. eigenvalues --    1.40778   1.43234   1.44365   1.44832   1.46068
 Alpha virt. eigenvalues --    1.46279   1.48570   1.49096   1.49203   1.52928
 Alpha virt. eigenvalues --    1.54733   1.55685   1.55970   1.57601   1.58930
 Alpha virt. eigenvalues --    1.59717   1.60072   1.60431   1.61278   1.61699
 Alpha virt. eigenvalues --    1.62131   1.62473   1.63215   1.63890   1.64473
 Alpha virt. eigenvalues --    1.65026   1.65780   1.65972   1.67141   1.67282
 Alpha virt. eigenvalues --    1.67578   1.68371   1.68960   1.69207   1.69860
 Alpha virt. eigenvalues --    1.70544   1.71379   1.71740   1.72055   1.72292
 Alpha virt. eigenvalues --    1.72606   1.73657   1.73923   1.74691   1.75471
 Alpha virt. eigenvalues --    1.76212   1.76878   1.78318   1.79191   1.80126
 Alpha virt. eigenvalues --    1.80310   1.80502   1.81583   1.81892   1.82363
 Alpha virt. eigenvalues --    1.82778   1.83293   1.83898   1.84329   1.85167
 Alpha virt. eigenvalues --    1.85997   1.86402   1.87422   1.87817   1.88258
 Alpha virt. eigenvalues --    1.88839   1.89312   1.90030   1.90923   1.91601
 Alpha virt. eigenvalues --    1.91992   1.92575   1.93795   1.93875   1.95212
 Alpha virt. eigenvalues --    1.96978   1.97974   1.98233   1.98455   1.98943
 Alpha virt. eigenvalues --    2.00151   2.00794   2.01307   2.02468   2.04404
 Alpha virt. eigenvalues --    2.05510   2.06151   2.06762   2.07747   2.09082
 Alpha virt. eigenvalues --    2.09587   2.10832   2.11487   2.12043   2.13074
 Alpha virt. eigenvalues --    2.13931   2.14423   2.15312   2.16418   2.16932
 Alpha virt. eigenvalues --    2.17348   2.18307   2.19522   2.20067   2.21188
 Alpha virt. eigenvalues --    2.22256   2.23669   2.24192   2.24547   2.26729
 Alpha virt. eigenvalues --    2.27711   2.28084   2.29026   2.31506   2.31750
 Alpha virt. eigenvalues --    2.32713   2.34259   2.34548   2.36303   2.38072
 Alpha virt. eigenvalues --    2.38547   2.40138   2.40408   2.43214   2.45221
 Alpha virt. eigenvalues --    2.46006   2.48325   2.48428   2.49107   2.51965
 Alpha virt. eigenvalues --    2.53329   2.53837   2.54314   2.55844   2.56860
 Alpha virt. eigenvalues --    2.57227   2.57596   2.58938   2.60193   2.60519
 Alpha virt. eigenvalues --    2.61219   2.62829   2.64059   2.64468   2.64968
 Alpha virt. eigenvalues --    2.65718   2.65913   2.66273   2.66641   2.67118
 Alpha virt. eigenvalues --    2.67256   2.68342   2.68479   2.69284   2.70124
 Alpha virt. eigenvalues --    2.71409   2.71509   2.72188   2.73547   2.74423
 Alpha virt. eigenvalues --    2.75609   2.76379   2.77332   2.79539   2.80314
 Alpha virt. eigenvalues --    2.80878   2.81936   2.82693   2.83323   2.83740
 Alpha virt. eigenvalues --    2.85207   2.86026   2.86586   2.87054   2.87312
 Alpha virt. eigenvalues --    2.88012   2.89023   2.89849   2.90528   2.91094
 Alpha virt. eigenvalues --    2.91457   2.92041   2.93101   2.93825   2.94011
 Alpha virt. eigenvalues --    2.95157   2.95439   2.96289   2.96879   2.97727
 Alpha virt. eigenvalues --    2.98404   2.99368   2.99473   3.00362   3.01874
 Alpha virt. eigenvalues --    3.03075   3.05092   3.07059   3.08215   3.09129
 Alpha virt. eigenvalues --    3.10873   3.12648   3.13704   3.14985   3.17365
 Alpha virt. eigenvalues --    3.18200   3.20373   3.21898   3.22902   3.24057
 Alpha virt. eigenvalues --    3.25939   3.26624   3.30296   3.32034   3.36806
 Alpha virt. eigenvalues --    3.38575   3.38884   3.39958   3.42227   3.44098
 Alpha virt. eigenvalues --    3.44328   3.47185   3.52474   3.53895   3.57683
 Alpha virt. eigenvalues --    3.59305   3.60889   3.63325   3.64824   3.67077
 Alpha virt. eigenvalues --    3.70314   3.77522   3.83998   3.87455   3.87522
 Alpha virt. eigenvalues --    3.88810   3.89423   3.90403   3.90912   3.91035
 Alpha virt. eigenvalues --    3.92467   3.93663   3.94597   3.95446   3.96086
 Alpha virt. eigenvalues --    3.96424   3.97223   3.97685   4.07378   4.12151
 Alpha virt. eigenvalues --    4.12385   4.13254   4.14477   4.16515   4.17032
 Alpha virt. eigenvalues --    4.28042   4.31562   4.38882   4.39253   4.40644
 Alpha virt. eigenvalues --    4.42541   4.43262   4.58088   4.72469   4.76470
 Alpha virt. eigenvalues --    4.96558   5.37784  14.90533  23.74904  23.92224
 Alpha virt. eigenvalues --   23.97371  23.99413  24.06137  24.09281  24.12043
 Alpha virt. eigenvalues --   24.12610  24.13842  24.14741  24.15128  24.16517
 Alpha virt. eigenvalues --   24.17222  24.18393  24.20017  24.21736  24.25310
 Alpha virt. eigenvalues --   24.26915  24.29301  24.33633  35.87050
          Condensed to atoms (all electrons):
               1          2          3          4          5          6
     1  C    6.971706   0.322272   0.102479   0.131028  -0.820579  -0.591409
     2  C    0.322272   6.306853  -0.114696   0.260986  -0.018170  -0.893965
     3  C    0.102479  -0.114696   7.706336  -0.318685  -1.025460   0.249115
     4  C    0.131028   0.260986  -0.318685   6.960454  -0.411128  -1.005931
     5  C   -0.820579  -0.018170  -1.025460  -0.411128   7.514448   1.130122
     6  C   -0.591409  -0.893965   0.249115  -1.005931   1.130122   7.387377
     7  H    0.016154   0.037600  -0.030115   0.415286  -0.089560  -0.009028
     8  H   -0.021432  -0.007163   0.027896  -0.122031   0.451016   0.022866
     9  H   -0.035538   0.027746  -0.011803  -0.014453  -0.031470   0.368964
    10  C    0.285965   0.312605  -0.011686  -0.128825  -0.056169  -0.732273
    11  H   -0.038647  -0.007163   0.003094  -0.000972   0.012548   0.046588
    12  H   -0.034966  -0.007627  -0.001619   0.006966   0.005720   0.020118
    13  C    0.309949   0.678476   0.055374   0.077185  -0.258413  -0.757552
    14  C   -0.457386  -0.329545   0.176072  -0.063728  -0.237192   0.533158
    15  C    0.132743   0.071796   0.031164   0.041781  -0.020404   0.058556
    16  C    0.406977  -0.959157   0.091959  -0.087629  -0.013424   0.772239
    17  C   -0.208521  -0.106932  -0.025221  -0.023331  -0.001312  -0.053435
    18  H    0.001728   0.013786  -0.000051   0.001920  -0.000892   0.001515
    19  H    0.003798  -0.009069   0.000349   0.000584  -0.001428  -0.000093
    20  H   -0.001632  -0.001851  -0.001125  -0.000310   0.000024   0.000148
    21  N   -0.104040  -0.189727   0.007231   0.025984   0.011845  -0.045384
    22  B   -0.166635   0.657874  -1.190329   0.422276   0.047274  -0.612035
    23  C   -0.175069   0.034458  -0.648408   0.226258   0.145059  -0.023912
    24  C   -0.082545  -0.270863  -0.662319   0.084295   0.169676   0.116327
    25  C    0.080052  -0.136174   0.351706  -0.082605  -0.116943   0.110960
    26  H   -0.002180  -0.026634  -0.005169  -0.003068  -0.015067   0.010560
    27  H   -0.010094  -0.039488   0.076863  -0.002102  -0.006981   0.040166
    28  H    0.001183  -0.006819   0.013469  -0.003032   0.001824  -0.001509
    29  C    0.083054  -0.113168   0.087589  -0.117865  -0.021745   0.068497
    30  H   -0.000162  -0.014869   0.009213  -0.010557  -0.004296  -0.000669
    31  H    0.002820  -0.001291   0.014161  -0.002852  -0.002596   0.001984
    32  H   -0.000501  -0.004095  -0.022373   0.003409   0.002344   0.001396
    33  C   -0.037326  -0.161669   0.019131  -0.077746  -0.012493   0.054444
    34  H    0.001702  -0.004772   0.024815  -0.021550  -0.010713   0.001778
    35  H   -0.001658  -0.000320  -0.011685   0.003634   0.005151   0.001459
    36  H   -0.014111  -0.015640  -0.012506  -0.001849   0.024505   0.021052
    37  C    0.008127   0.037530  -0.078043  -0.022248  -0.010441   0.002973
    38  H   -0.001880  -0.002351  -0.023172   0.003006   0.001195   0.000576
    39  H   -0.000183   0.000264   0.009450   0.000368   0.000374  -0.000011
    40  H    0.010146  -0.001796   0.021942  -0.012128  -0.005294   0.001346
    41  C    0.023282   0.084525   0.378201  -0.037946   0.010511  -0.020431
    42  H   -0.001930   0.002417  -0.006539   0.006500  -0.001100  -0.000122
    43  H   -0.007511   0.005947  -0.097497   0.021104   0.033050   0.000403
    44  H   -0.004805   0.019751  -0.028531   0.023521   0.042228  -0.002707
    45  C   -0.016341   0.214111   0.025558   0.071228   0.018422  -0.088441
    46  H    0.012408   0.003000   0.046167   0.005830  -0.003888  -0.019318
    47  H    0.001625   0.004952   0.006349   0.002999  -0.007297  -0.013492
    48  H   -0.001135  -0.000417   0.002580   0.001138   0.003092  -0.004034
               7          8          9         10         11         12
     1  C    0.016154  -0.021432  -0.035538   0.285965  -0.038647  -0.034966
     2  C    0.037600  -0.007163   0.027746   0.312605  -0.007163  -0.007627
     3  C   -0.030115   0.027896  -0.011803  -0.011686   0.003094  -0.001619
     4  C    0.415286  -0.122031  -0.014453  -0.128825  -0.000972   0.006966
     5  C   -0.089560   0.451016  -0.031470  -0.056169   0.012548   0.005720
     6  C   -0.009028   0.022866   0.368964  -0.732273   0.046588   0.020118
     7  H    0.510354  -0.010345   0.001032  -0.005239  -0.000172   0.000006
     8  H   -0.010345   0.459215  -0.007341  -0.002215   0.000683   0.000222
     9  H    0.001032  -0.007341   0.458872   0.032030  -0.002348  -0.001239
    10  C   -0.005239  -0.002215   0.032030   6.417768   0.334821   0.358084
    11  H   -0.000172   0.000683  -0.002348   0.334821   0.495735  -0.047372
    12  H    0.000006   0.000222  -0.001239   0.358084  -0.047372   0.494790
    13  C    0.011554  -0.002569  -0.001622   0.263196  -0.023929  -0.017711
    14  C   -0.008649  -0.002911  -0.003677   0.253305  -0.032339  -0.019668
    15  C    0.000033   0.000663  -0.000028  -0.269589   0.010726  -0.000390
    16  C   -0.002657   0.000179  -0.006743  -1.089097   0.034593   0.025078
    17  C   -0.000218  -0.000423  -0.000278   0.155599  -0.010180  -0.001421
    18  H   -0.000113   0.000024   0.000006  -0.010139   0.000207   0.000008
    19  H   -0.000010  -0.000028   0.000357   0.013319  -0.001226  -0.000153
    20  H    0.000021   0.000001  -0.000037   0.004979   0.000126   0.000202
    21  N    0.001466   0.000161   0.000590   0.008621   0.001724   0.001756
    22  B   -0.018511  -0.032520   0.015369   0.509960  -0.016455  -0.024832
    23  C   -0.011988   0.005496  -0.002745   0.042724   0.003362   0.000065
    24  C   -0.070029   0.009186  -0.003714  -0.042894  -0.000939   0.003345
    25  C   -0.011042  -0.002362   0.000844  -0.081193   0.001285  -0.000245
    26  H   -0.001174  -0.000153  -0.000279  -0.020685   0.000191   0.000449
    27  H   -0.005493   0.001235  -0.001572  -0.024947   0.001948  -0.000171
    28  H   -0.000684   0.000048   0.000136   0.001839  -0.000136   0.000030
    29  C   -0.019666   0.000797  -0.000507  -0.046194   0.000980  -0.000770
    30  H    0.001086  -0.000066  -0.000052  -0.001843   0.000231  -0.000160
    31  H   -0.000387  -0.000009  -0.000010  -0.001708  -0.000069   0.000036
    32  H   -0.000833   0.000018   0.000015   0.000241   0.000011  -0.000022
    33  C   -0.004989  -0.000651   0.000019  -0.025058  -0.000318  -0.000052
    34  H    0.000869  -0.000289   0.000026  -0.001300  -0.000077   0.000034
    35  H   -0.001484   0.000116  -0.000019   0.000175   0.000025  -0.000016
    36  H   -0.013499   0.000705   0.000083  -0.002247   0.000134  -0.000136
    37  C   -0.006354   0.000134  -0.000030   0.003097  -0.000263   0.000247
    38  H    0.000319  -0.000055   0.000016   0.000282   0.000007  -0.000028
    39  H   -0.000298   0.000001  -0.000001   0.000228   0.000017  -0.000031
    40  H   -0.000537   0.000007  -0.000053  -0.002549  -0.000081   0.000080
    41  C    0.072558  -0.001981   0.000676   0.007743   0.000332  -0.000779
    42  H    0.001042  -0.000019   0.000020   0.000168  -0.000019   0.000032
    43  H    0.001673   0.000239   0.000133   0.002209   0.000113  -0.000152
    44  H    0.001800  -0.000549   0.000669   0.007287  -0.000293   0.000457
    45  C    0.031776  -0.002510   0.002023   0.070441  -0.001253   0.002099
    46  H    0.004806   0.001160  -0.000564   0.008008  -0.000011   0.001102
    47  H    0.001749  -0.000267   0.000082   0.007997  -0.000594   0.000788
    48  H   -0.000855   0.000009   0.000062   0.003381   0.000007  -0.000046
              13         14         15         16         17         18
     1  C    0.309949  -0.457386   0.132743   0.406977  -0.208521   0.001728
     2  C    0.678476  -0.329545   0.071796  -0.959157  -0.106932   0.013786
     3  C    0.055374   0.176072   0.031164   0.091959  -0.025221  -0.000051
     4  C    0.077185  -0.063728   0.041781  -0.087629  -0.023331   0.001920
     5  C   -0.258413  -0.237192  -0.020404  -0.013424  -0.001312  -0.000892
     6  C   -0.757552   0.533158   0.058556   0.772239  -0.053435   0.001515
     7  H    0.011554  -0.008649   0.000033  -0.002657  -0.000218  -0.000113
     8  H   -0.002569  -0.002911   0.000663   0.000179  -0.000423   0.000024
     9  H   -0.001622  -0.003677  -0.000028  -0.006743  -0.000278   0.000006
    10  C    0.263196   0.253305  -0.269589  -1.089097   0.155599  -0.010139
    11  H   -0.023929  -0.032339   0.010726   0.034593  -0.010180   0.000207
    12  H   -0.017711  -0.019668  -0.000390   0.025078  -0.001421   0.000008
    13  C    7.721781  -0.153248  -0.604990  -1.030904   0.462881  -0.010128
    14  C   -0.153248   7.357677   0.087647  -0.361204  -0.436355   0.014829
    15  C   -0.604990   0.087647   6.943573   0.136750  -0.881256   0.529478
    16  C   -1.030904  -0.361204   0.136750   9.553723   0.345182   0.002485
    17  C    0.462881  -0.436355  -0.881256   0.345182   6.806979  -0.136256
    18  H   -0.010128   0.014829   0.529478   0.002485  -0.136256   0.477186
    19  H    0.035046  -0.037339   0.005481   0.343349  -0.009235   0.001305
    20  H    0.002816   0.005907  -0.080953  -0.025110   0.406090  -0.004679
    21  N   -0.140245  -0.041224   0.055146  -0.664464   0.058996  -0.081625
    22  B   -0.707341  -0.577530  -0.722738  -1.193832   0.265053  -0.047217
    23  C    0.016176  -0.027383  -0.017021  -0.045436   0.131772  -0.011551
    24  C    0.056371   0.008032   0.159900   0.124239  -0.059711   0.012358
    25  C    0.002050   0.088816   0.142992   0.119499  -0.065845   0.014518
    26  H   -0.009321   0.005779   0.004901   0.029730  -0.007583   0.000482
    27  H    0.007121   0.022127   0.021362   0.024058  -0.012851   0.001271
    28  H    0.000873  -0.002973  -0.000988  -0.002336   0.000704  -0.000199
    29  C    0.302753   0.055712   0.132915   0.142774  -0.148510   0.021070
    30  H    0.016410  -0.005553  -0.040340   0.002466   0.014744  -0.011554
    31  H    0.015084   0.002180   0.002309   0.006050  -0.003898  -0.000324
    32  H   -0.002335  -0.000444   0.007547   0.001397  -0.002175   0.001810
    33  C   -0.045644   0.003517  -0.003699   0.013927  -0.014395  -0.002975
    34  H    0.004066   0.001656   0.000178   0.001523  -0.000608  -0.000082
    35  H   -0.000452  -0.000080  -0.000707   0.000245  -0.000296  -0.000096
    36  H   -0.004747   0.001562  -0.000450   0.001714  -0.002539   0.000041
    37  C    0.067097   0.011915   0.014354   0.013297  -0.006725   0.004221
    38  H   -0.005013  -0.000390  -0.000971  -0.000105   0.000232  -0.000494
    39  H    0.000731  -0.000434  -0.000012   0.000068   0.001894  -0.000453
    40  H    0.032331   0.002292   0.002399   0.012503  -0.006463   0.000744
    41  C   -0.064214  -0.003937  -0.035527  -0.013682   0.011247  -0.003135
    42  H    0.000376   0.000070  -0.000635  -0.000091   0.000040  -0.000095
    43  H   -0.014878  -0.004900  -0.003586  -0.002470   0.000582  -0.000264
    44  H   -0.004017  -0.005829  -0.002314  -0.004587   0.002122  -0.000058
    45  C   -0.107481   0.001066  -0.088719  -0.103713   0.048993  -0.006973
    46  H    0.033667   0.000543   0.012336  -0.007996   0.000231   0.000970
    47  H    0.025200  -0.000787  -0.065539  -0.009928   0.043872  -0.007311
    48  H   -0.009219  -0.003534  -0.004889  -0.005973   0.002141  -0.000523
              19         20         21         22         23         24
     1  C    0.003798  -0.001632  -0.104040  -0.166635  -0.175069  -0.082545
     2  C   -0.009069  -0.001851  -0.189727   0.657874   0.034458  -0.270863
     3  C    0.000349  -0.001125   0.007231  -1.190329  -0.648408  -0.662319
     4  C    0.000584  -0.000310   0.025984   0.422276   0.226258   0.084295
     5  C   -0.001428   0.000024   0.011845   0.047274   0.145059   0.169676
     6  C   -0.000093   0.000148  -0.045384  -0.612035  -0.023912   0.116327
     7  H   -0.000010   0.000021   0.001466  -0.018511  -0.011988  -0.070029
     8  H   -0.000028   0.000001   0.000161  -0.032520   0.005496   0.009186
     9  H    0.000357  -0.000037   0.000590   0.015369  -0.002745  -0.003714
    10  C    0.013319   0.004979   0.008621   0.509960   0.042724  -0.042894
    11  H   -0.001226   0.000126   0.001724  -0.016455   0.003362  -0.000939
    12  H   -0.000153   0.000202   0.001756  -0.024832   0.000065   0.003345
    13  C    0.035046   0.002816  -0.140245  -0.707341   0.016176   0.056371
    14  C   -0.037339   0.005907  -0.041224  -0.577530  -0.027383   0.008032
    15  C    0.005481  -0.080953   0.055146  -0.722738  -0.017021   0.159900
    16  C    0.343349  -0.025110  -0.664464  -1.193832  -0.045436   0.124239
    17  C   -0.009235   0.406090   0.058996   0.265053   0.131772  -0.059711
    18  H    0.001305  -0.004679  -0.081625  -0.047217  -0.011551   0.012358
    19  H    0.429034  -0.005996  -0.003391  -0.001075  -0.001489   0.000119
    20  H   -0.005996   0.437877   0.015642   0.004392   0.002977  -0.000989
    21  N   -0.003391   0.015642   7.457413   0.393311  -0.053881   0.018132
    22  B   -0.001075   0.004392   0.393311  18.342164   0.430133   0.342981
    23  C   -0.001489   0.002977  -0.053881   0.430133   8.190822  -0.242122
    24  C    0.000119  -0.000989   0.018132   0.342981  -0.242122   8.332105
    25  C    0.001345  -0.002096   0.096397  -1.498099  -0.312754   0.176696
    26  H   -0.000091  -0.000312   0.032435  -0.189655  -0.039432   0.042887
    27  H   -0.000089  -0.000060  -0.004025  -0.437723   0.075429   0.064507
    28  H    0.000051  -0.000036   0.004574   0.096167  -0.071097   0.008922
    29  C    0.000799  -0.001760  -0.080426  -2.368840  -1.038233   0.669403
    30  H   -0.000229   0.001236   0.003204   0.002398  -0.032641   0.020573
    31  H    0.000038  -0.000053  -0.001237  -0.073466  -0.075618   0.013659
    32  H    0.000033  -0.000133   0.000124  -0.003308   0.066514  -0.040867
    33  C    0.000111   0.000112   0.030840  -1.009078  -1.024488   0.395118
    34  H    0.000013  -0.000006  -0.000649  -0.073610  -0.036368   0.069093
    35  H   -0.000001   0.000002  -0.000202   0.043812  -0.048038   0.005059
    36  H    0.000010  -0.000022   0.003004  -0.179467  -0.114497   0.026917
    37  C    0.000133  -0.000089  -0.078442  -1.178615   0.340696  -0.459300
    38  H    0.000014   0.000008   0.003302  -0.077314   0.083632   0.025778
    39  H   -0.000004   0.000017  -0.000140   0.049905   0.017788  -0.020953
    40  H    0.000087   0.000013  -0.012357  -0.149538  -0.087434  -0.038210
    41  C   -0.000112   0.000172   0.030380  -1.522866   0.040837  -1.374374
    42  H   -0.000000   0.000004  -0.000141   0.018387   0.006461  -0.012818
    43  H   -0.000008   0.000008   0.001638  -0.057784   0.010538  -0.051535
    44  H   -0.000026  -0.000003   0.000885  -0.193837   0.022587  -0.106319
    45  C    0.000110   0.000618   0.017092  -1.157710   0.144099  -1.092463
    46  H   -0.000287   0.000065  -0.020097  -0.362074   0.037792  -0.073009
    47  H   -0.000340   0.000565   0.032142  -0.019946   0.022817  -0.057203
    48  H    0.000060   0.000034   0.006983   0.088047   0.008415  -0.055715
              25         26         27         28         29         30
     1  C    0.080052  -0.002180  -0.010094   0.001183   0.083054  -0.000162
     2  C   -0.136174  -0.026634  -0.039488  -0.006819  -0.113168  -0.014869
     3  C    0.351706  -0.005169   0.076863   0.013469   0.087589   0.009213
     4  C   -0.082605  -0.003068  -0.002102  -0.003032  -0.117865  -0.010557
     5  C   -0.116943  -0.015067  -0.006981   0.001824  -0.021745  -0.004296
     6  C    0.110960   0.010560   0.040166  -0.001509   0.068497  -0.000669
     7  H   -0.011042  -0.001174  -0.005493  -0.000684  -0.019666   0.001086
     8  H   -0.002362  -0.000153   0.001235   0.000048   0.000797  -0.000066
     9  H    0.000844  -0.000279  -0.001572   0.000136  -0.000507  -0.000052
    10  C   -0.081193  -0.020685  -0.024947   0.001839  -0.046194  -0.001843
    11  H    0.001285   0.000191   0.001948  -0.000136   0.000980   0.000231
    12  H   -0.000245   0.000449  -0.000171   0.000030  -0.000770  -0.000160
    13  C    0.002050  -0.009321   0.007121   0.000873   0.302753   0.016410
    14  C    0.088816   0.005779   0.022127  -0.002973   0.055712  -0.005553
    15  C    0.142992   0.004901   0.021362  -0.000988   0.132915  -0.040340
    16  C    0.119499   0.029730   0.024058  -0.002336   0.142774   0.002466
    17  C   -0.065845  -0.007583  -0.012851   0.000704  -0.148510   0.014744
    18  H    0.014518   0.000482   0.001271  -0.000199   0.021070  -0.011554
    19  H    0.001345  -0.000091  -0.000089   0.000051   0.000799  -0.000229
    20  H   -0.002096  -0.000312  -0.000060  -0.000036  -0.001760   0.001236
    21  N    0.096397   0.032435  -0.004025   0.004574  -0.080426   0.003204
    22  B   -1.498099  -0.189655  -0.437723   0.096167  -2.368840   0.002398
    23  C   -0.312754  -0.039432   0.075429  -0.071097  -1.038233  -0.032641
    24  C    0.176696   0.042887   0.064507   0.008922   0.669403   0.020573
    25  C    6.971138   0.424490   0.399208   0.445465   0.232512  -0.094463
    26  H    0.424490   0.574091  -0.008098  -0.044505   0.063704   0.002266
    27  H    0.399208  -0.008098   0.597186  -0.056345   0.177474   0.005846
    28  H    0.445465  -0.044505  -0.056345   0.564360  -0.077557  -0.008099
    29  C    0.232512   0.063704   0.177474  -0.077557   8.094952   0.418144
    30  H   -0.094463   0.002266   0.005846  -0.008099   0.418144   0.609598
    31  H   -0.023833   0.006031   0.010859   0.001502   0.481094  -0.017600
    32  H    0.058545  -0.002480  -0.008194   0.009466   0.279582  -0.054020
    33  C   -0.270097   0.074285   0.006958  -0.052554   0.104856   0.129344
    34  H    0.070626  -0.003104  -0.000782   0.011155   0.037938   0.005511
    35  H   -0.047033   0.005162  -0.000562   0.002974  -0.020626   0.003995
    36  H    0.039450   0.008247   0.012231  -0.007000   0.092500  -0.001961
    37  C   -0.109791  -0.012871  -0.027189   0.006376  -0.260099  -0.029879
    38  H   -0.009242  -0.000847   0.000168  -0.001376  -0.030075   0.005769
    39  H    0.001136   0.000251  -0.000621   0.000159  -0.022866  -0.001140
    40  H   -0.008313  -0.001796  -0.000435   0.000127   0.087392  -0.006493
    41  C   -0.135002  -0.019580  -0.054068   0.000007  -0.346687  -0.026110
    42  H   -0.004075  -0.000454  -0.000681   0.000062  -0.008183   0.000140
    43  H   -0.030336  -0.003340  -0.004332  -0.001130  -0.019489  -0.000165
    44  H   -0.013922  -0.001614  -0.007524   0.000377  -0.049832  -0.003580
    45  C   -0.192496  -0.037420  -0.024257  -0.002708  -0.230492  -0.024883
    46  H   -0.025630  -0.003310  -0.003727  -0.000301  -0.029025  -0.004395
    47  H   -0.001583  -0.002108  -0.003460   0.000827  -0.050686   0.000197
    48  H   -0.004491  -0.000747  -0.000117  -0.000173   0.000045  -0.000075
              31         32         33         34         35         36
     1  C    0.002820  -0.000501  -0.037326   0.001702  -0.001658  -0.014111
     2  C   -0.001291  -0.004095  -0.161669  -0.004772  -0.000320  -0.015640
     3  C    0.014161  -0.022373   0.019131   0.024815  -0.011685  -0.012506
     4  C   -0.002852   0.003409  -0.077746  -0.021550   0.003634  -0.001849
     5  C   -0.002596   0.002344  -0.012493  -0.010713   0.005151   0.024505
     6  C    0.001984   0.001396   0.054444   0.001778   0.001459   0.021052
     7  H   -0.000387  -0.000833  -0.004989   0.000869  -0.001484  -0.013499
     8  H   -0.000009   0.000018  -0.000651  -0.000289   0.000116   0.000705
     9  H   -0.000010   0.000015   0.000019   0.000026  -0.000019   0.000083
    10  C   -0.001708   0.000241  -0.025058  -0.001300   0.000175  -0.002247
    11  H   -0.000069   0.000011  -0.000318  -0.000077   0.000025   0.000134
    12  H    0.000036  -0.000022  -0.000052   0.000034  -0.000016  -0.000136
    13  C    0.015084  -0.002335  -0.045644   0.004066  -0.000452  -0.004747
    14  C    0.002180  -0.000444   0.003517   0.001656  -0.000080   0.001562
    15  C    0.002309   0.007547  -0.003699   0.000178  -0.000707  -0.000450
    16  C    0.006050   0.001397   0.013927   0.001523   0.000245   0.001714
    17  C   -0.003898  -0.002175  -0.014395  -0.000608  -0.000296  -0.002539
    18  H   -0.000324   0.001810  -0.002975  -0.000082  -0.000096   0.000041
    19  H    0.000038   0.000033   0.000111   0.000013  -0.000001   0.000010
    20  H   -0.000053  -0.000133   0.000112  -0.000006   0.000002  -0.000022
    21  N   -0.001237   0.000124   0.030840  -0.000649  -0.000202   0.003004
    22  B   -0.073466  -0.003308  -1.009078  -0.073610   0.043812  -0.179467
    23  C   -0.075618   0.066514  -1.024488  -0.036368  -0.048038  -0.114497
    24  C    0.013659  -0.040867   0.395118   0.069093   0.005059   0.026917
    25  C   -0.023833   0.058545  -0.270097   0.070626  -0.047033   0.039450
    26  H    0.006031  -0.002480   0.074285  -0.003104   0.005162   0.008247
    27  H    0.010859  -0.008194   0.006958  -0.000782  -0.000562   0.012231
    28  H    0.001502   0.009466  -0.052554   0.011155   0.002974  -0.007000
    29  C    0.481094   0.279582   0.104856   0.037938  -0.020626   0.092500
    30  H   -0.017600  -0.054020   0.129344   0.005511   0.003995  -0.001961
    31  H    0.561623  -0.047979  -0.003346   0.000496  -0.000005   0.004208
    32  H   -0.047979   0.592149  -0.035597   0.006148  -0.000497   0.002215
    33  C   -0.003346  -0.035597   7.853162   0.356338   0.430737   0.543154
    34  H    0.000496   0.006148   0.356338   0.548557  -0.038074  -0.022728
    35  H   -0.000005  -0.000497   0.430737  -0.038074   0.517771  -0.026369
    36  H    0.004208   0.002215   0.543154  -0.022728  -0.026369   0.559651
    37  C   -0.002421   0.068088  -0.133625  -0.005193   0.002501  -0.025460
    38  H   -0.000187  -0.009915  -0.013655  -0.021733  -0.001108  -0.001491
    39  H   -0.000089   0.001831   0.003043  -0.000232   0.000136  -0.000789
    40  H   -0.000129   0.003188  -0.011254   0.000633   0.000448   0.000125
    41  C   -0.012126   0.011307  -0.231042  -0.044389  -0.003093  -0.024182
    42  H    0.000033  -0.000821   0.003618   0.001180  -0.000352  -0.001288
    43  H   -0.002739  -0.000536   0.004991  -0.023403   0.001134  -0.005494
    44  H   -0.000574   0.000442  -0.031334  -0.003948  -0.001036  -0.005221
    45  C   -0.005534  -0.009951  -0.254182  -0.023586  -0.000095  -0.042400
    46  H   -0.000487  -0.000220  -0.034779  -0.001745   0.000014  -0.007865
    47  H   -0.000381  -0.000687  -0.018197   0.001997  -0.000585  -0.001795
    48  H   -0.000192  -0.001548  -0.000571  -0.001962   0.000192   0.000147
              37         38         39         40         41         42
     1  C    0.008127  -0.001880  -0.000183   0.010146   0.023282  -0.001930
     2  C    0.037530  -0.002351   0.000264  -0.001796   0.084525   0.002417
     3  C   -0.078043  -0.023172   0.009450   0.021942   0.378201  -0.006539
     4  C   -0.022248   0.003006   0.000368  -0.012128  -0.037946   0.006500
     5  C   -0.010441   0.001195   0.000374  -0.005294   0.010511  -0.001100
     6  C    0.002973   0.000576  -0.000011   0.001346  -0.020431  -0.000122
     7  H   -0.006354   0.000319  -0.000298  -0.000537   0.072558   0.001042
     8  H    0.000134  -0.000055   0.000001   0.000007  -0.001981  -0.000019
     9  H   -0.000030   0.000016  -0.000001  -0.000053   0.000676   0.000020
    10  C    0.003097   0.000282   0.000228  -0.002549   0.007743   0.000168
    11  H   -0.000263   0.000007   0.000017  -0.000081   0.000332  -0.000019
    12  H    0.000247  -0.000028  -0.000031   0.000080  -0.000779   0.000032
    13  C    0.067097  -0.005013   0.000731   0.032331  -0.064214   0.000376
    14  C    0.011915  -0.000390  -0.000434   0.002292  -0.003937   0.000070
    15  C    0.014354  -0.000971  -0.000012   0.002399  -0.035527  -0.000635
    16  C    0.013297  -0.000105   0.000068   0.012503  -0.013682  -0.000091
    17  C   -0.006725   0.000232   0.001894  -0.006463   0.011247   0.000040
    18  H    0.004221  -0.000494  -0.000453   0.000744  -0.003135  -0.000095
    19  H    0.000133   0.000014  -0.000004   0.000087  -0.000112  -0.000000
    20  H   -0.000089   0.000008   0.000017   0.000013   0.000172   0.000004
    21  N   -0.078442   0.003302  -0.000140  -0.012357   0.030380  -0.000141
    22  B   -1.178615  -0.077314   0.049905  -0.149538  -1.522866   0.018387
    23  C    0.340696   0.083632   0.017788  -0.087434   0.040837   0.006461
    24  C   -0.459300   0.025778  -0.020953  -0.038210  -1.374374  -0.012818
    25  C   -0.109791  -0.009242   0.001136  -0.008313  -0.135002  -0.004075
    26  H   -0.012871  -0.000847   0.000251  -0.001796  -0.019580  -0.000454
    27  H   -0.027189   0.000168  -0.000621  -0.000435  -0.054068  -0.000681
    28  H    0.006376  -0.001376   0.000159   0.000127   0.000007   0.000062
    29  C   -0.260099  -0.030075  -0.022866   0.087392  -0.346687  -0.008183
    30  H   -0.029879   0.005769  -0.001140  -0.006493  -0.026110   0.000140
    31  H   -0.002421  -0.000187  -0.000089  -0.000129  -0.012126   0.000033
    32  H    0.068088  -0.009915   0.001831   0.003188   0.011307  -0.000821
    33  C   -0.133625  -0.013655   0.003043  -0.011254  -0.231042   0.003618
    34  H   -0.005193  -0.021733  -0.000232   0.000633  -0.044389   0.001180
    35  H    0.002501  -0.001108   0.000136   0.000448  -0.003093  -0.000352
    36  H   -0.025460  -0.001491  -0.000789   0.000125  -0.024182  -0.001288
    37  C    7.038510   0.324425   0.389810   0.456858  -0.022660  -0.033999
    38  H    0.324425   0.598285  -0.047282  -0.025202  -0.026556  -0.000104
    39  H    0.389810  -0.047282   0.557419  -0.032903  -0.017883   0.002934
    40  H    0.456858  -0.025202  -0.032903   0.547100   0.053362   0.002204
    41  C   -0.022660  -0.026556  -0.017883   0.053362   7.859005   0.416774
    42  H   -0.033999  -0.000104   0.002934   0.002204   0.416774   0.524376
    43  H    0.023369   0.012908  -0.005295  -0.001359   0.419370  -0.035124
    44  H    0.057019  -0.000708   0.005459  -0.004516   0.496713  -0.026116
    45  C    0.063080   0.076100  -0.061101  -0.012161   0.511056  -0.032674
    46  H    0.096752  -0.006797   0.006457   0.004592   0.101167   0.001409
    47  H   -0.007907  -0.005425   0.004495  -0.002229   0.082344   0.003924
    48  H   -0.100364   0.012299  -0.000582  -0.004985  -0.037734  -0.000919
              43         44         45         46         47         48
     1  C   -0.007511  -0.004805  -0.016341   0.012408   0.001625  -0.001135
     2  C    0.005947   0.019751   0.214111   0.003000   0.004952  -0.000417
     3  C   -0.097497  -0.028531   0.025558   0.046167   0.006349   0.002580
     4  C    0.021104   0.023521   0.071228   0.005830   0.002999   0.001138
     5  C    0.033050   0.042228   0.018422  -0.003888  -0.007297   0.003092
     6  C    0.000403  -0.002707  -0.088441  -0.019318  -0.013492  -0.004034
     7  H    0.001673   0.001800   0.031776   0.004806   0.001749  -0.000855
     8  H    0.000239  -0.000549  -0.002510   0.001160  -0.000267   0.000009
     9  H    0.000133   0.000669   0.002023  -0.000564   0.000082   0.000062
    10  C    0.002209   0.007287   0.070441   0.008008   0.007997   0.003381
    11  H    0.000113  -0.000293  -0.001253  -0.000011  -0.000594   0.000007
    12  H   -0.000152   0.000457   0.002099   0.001102   0.000788  -0.000046
    13  C   -0.014878  -0.004017  -0.107481   0.033667   0.025200  -0.009219
    14  C   -0.004900  -0.005829   0.001066   0.000543  -0.000787  -0.003534
    15  C   -0.003586  -0.002314  -0.088719   0.012336  -0.065539  -0.004889
    16  C   -0.002470  -0.004587  -0.103713  -0.007996  -0.009928  -0.005973
    17  C    0.000582   0.002122   0.048993   0.000231   0.043872   0.002141
    18  H   -0.000264  -0.000058  -0.006973   0.000970  -0.007311  -0.000523
    19  H   -0.000008  -0.000026   0.000110  -0.000287  -0.000340   0.000060
    20  H    0.000008  -0.000003   0.000618   0.000065   0.000565   0.000034
    21  N    0.001638   0.000885   0.017092  -0.020097   0.032142   0.006983
    22  B   -0.057784  -0.193837  -1.157710  -0.362074  -0.019946   0.088047
    23  C    0.010538   0.022587   0.144099   0.037792   0.022817   0.008415
    24  C   -0.051535  -0.106319  -1.092463  -0.073009  -0.057203  -0.055715
    25  C   -0.030336  -0.013922  -0.192496  -0.025630  -0.001583  -0.004491
    26  H   -0.003340  -0.001614  -0.037420  -0.003310  -0.002108  -0.000747
    27  H   -0.004332  -0.007524  -0.024257  -0.003727  -0.003460  -0.000117
    28  H   -0.001130   0.000377  -0.002708  -0.000301   0.000827  -0.000173
    29  C   -0.019489  -0.049832  -0.230492  -0.029025  -0.050686   0.000045
    30  H   -0.000165  -0.003580  -0.024883  -0.004395   0.000197  -0.000075
    31  H   -0.002739  -0.000574  -0.005534  -0.000487  -0.000381  -0.000192
    32  H   -0.000536   0.000442  -0.009951  -0.000220  -0.000687  -0.001548
    33  C    0.004991  -0.031334  -0.254182  -0.034779  -0.018197  -0.000571
    34  H   -0.023403  -0.003948  -0.023586  -0.001745   0.001997  -0.001962
    35  H    0.001134  -0.001036  -0.000095   0.000014  -0.000585   0.000192
    36  H   -0.005494  -0.005221  -0.042400  -0.007865  -0.001795   0.000147
    37  C    0.023369   0.057019   0.063080   0.096752  -0.007907  -0.100364
    38  H    0.012908  -0.000708   0.076100  -0.006797  -0.005425   0.012299
    39  H   -0.005295   0.005459  -0.061101   0.006457   0.004495  -0.000582
    40  H   -0.001359  -0.004516  -0.012161   0.004592  -0.002229  -0.004985
    41  C    0.419370   0.496713   0.511056   0.101167   0.082344  -0.037734
    42  H   -0.035124  -0.026116  -0.032674   0.001409   0.003924  -0.000919
    43  H    0.570936  -0.016547   0.110287   0.006070  -0.005731   0.010150
    44  H   -0.016547   0.564706   0.071884   0.013641   0.008695  -0.006335
    45  C    0.110287   0.071884   7.356654   0.464184   0.357642   0.469218
    46  H    0.006070   0.013641   0.464184   0.567897  -0.002763  -0.054333
    47  H   -0.005731   0.008695   0.357642  -0.002763   0.546531  -0.045006
    48  H    0.010150  -0.006335   0.469218  -0.054333  -0.045006   0.559997
 Mulliken charges:
               1
     1  C   -0.070985
     2  C    0.348482
     3  C    0.788768
     4  C   -0.225168
     5  C   -0.425972
     6  C   -0.148937
     7  H    0.212744
     8  H    0.235813
     9  H    0.216356
    10  C   -0.550225
    11  H    0.235370
    12  H    0.237895
    13  C   -0.222591
    14  C    0.184380
    15  C    0.239015
    16  C   -0.575466
    17  C   -0.533381
    18  H    0.235223
    19  H    0.236177
    20  H    0.243194
    21  N    0.200681
    22  B   -0.865523
    23  C    0.034699
    24  C   -0.136785
    25  C   -0.550063
    26  H    0.177137
    27  H    0.199970
    28  H    0.168879
    29  C   -0.533231
    30  H    0.143482
    31  H    0.156976
    32  H    0.131712
    33  C   -0.516891
    34  H    0.194570
    35  H    0.179748
    36  H    0.194099
    37  C   -0.418600
    38  H    0.165154
    39  H    0.159068
    40  H    0.188295
    41  C   -0.531474
    42  H    0.176129
    43  H    0.158753
    44  H    0.186440
    45  C   -0.508198
    46  H    0.232350
    47  H    0.173458
    48  H    0.178473
 Sum of Mulliken charges =  -0.00000
 Mulliken charges with hydrogens summed into heavy atoms:
               1
     1  C   -0.070985
     2  C    0.348482
     3  C    0.788768
     4  C   -0.012424
     5  C   -0.190159
     6  C    0.067419
    10  C   -0.076960
    13  C   -0.222591
    14  C    0.184380
    15  C    0.474238
    16  C   -0.339289
    17  C   -0.290187
    21  N    0.200681
    22  B   -0.865523
    23  C    0.034699
    24  C   -0.136785
    25  C   -0.004078
    29  C   -0.101060
    33  C    0.051526
    37  C    0.093918
    41  C   -0.010153
    45  C    0.076083
 Electronic spatial extent (au):  <R**2>=          11908.9935
 Charge=             -0.0000 electrons
 Dipole moment (field-independent basis, Debye):
    X=             -1.7269    Y=             -1.8215    Z=             -2.1040  Tot=              3.2752
 Quadrupole moment (field-independent basis, Debye-Ang):
   XX=           -141.4799   YY=           -125.4032   ZZ=           -137.3446
   XY=             -7.9316   XZ=             -0.9700   YZ=              4.7389
 Traceless Quadrupole moment (field-independent basis, Debye-Ang):
   XX=             -6.7374   YY=              9.3394   ZZ=             -2.6020
   XY=             -7.9316   XZ=             -0.9700   YZ=              4.7389
 Octapole moment (field-independent basis, Debye-Ang**2):
  XXX=          -1228.6766  YYY=           -343.4592  ZZZ=           -484.0903  XYY=           -374.9592
  XXY=           -141.8836  XXZ=           -163.4454  XZZ=           -410.0693  YZZ=           -113.5111
  YYZ=           -157.3431  XYZ=              9.8280
 Hexadecapole moment (field-independent basis, Debye-Ang**3):
 XXXX=          -9947.8806 YYYY=          -3390.9386 ZZZZ=          -3815.3964 XXXY=          -1224.2566
 XXXZ=          -1919.3426 YYYX=          -1194.3854 YYYZ=           -796.6692 ZZZX=          -1910.4992
 ZZZY=           -868.8715 XXYY=          -2101.2706 XXZZ=          -2319.0592 YYZZ=          -1222.4838
 XXYZ=           -289.4262 YYXZ=           -611.4633 ZZXY=           -352.2289
 N-N= 1.845978047957D+03 E-N=-5.680683088754D+03  KE= 8.533993275913D+02
 Breneman (CHELPG) radii used.
 Generate Potential Derived Charges using the Breneman model, NDens= 1.
 Grid spacing= 0.300 Box extension= 2.800
 NStep X,Y,Z=   47     47     46   Total possible points=      101614
 Number of Points to Fit=   22938

 **********************************************************************

            Electrostatic Properties Using The SCF Density.

 **********************************************************************

       Atomic Center    1 is at   0.709711  0.844928 -0.435863
       Atomic Center    2 is at   1.846097  0.792743  0.373074
       Atomic Center    3 is at   2.270835  1.836103  1.194908
       Atomic Center    4 is at   1.476682  2.986517  1.155338
       Atomic Center    5 is at   0.337450  3.062699  0.350292
       Atomic Center    6 is at  -0.063417  1.995391 -0.451553
       Atomic Center    7 is at   1.743532  3.851317  1.754602
       Atomic Center    8 is at  -0.247791  3.976293  0.350847
       Atomic Center    9 is at  -0.951852  2.072811 -1.069149
       Atomic Center   10 is at   0.548510 -0.458302 -1.193329
       Atomic Center   11 is at   0.560169 -0.302586 -2.276672
       Atomic Center   12 is at  -0.394851 -0.956640 -0.948323
       Atomic Center   13 is at   2.482592 -0.504008  0.186859
       Atomic Center   14 is at   1.741569 -1.259920 -0.729814
       Atomic Center   15 is at   4.027624 -2.122331  0.474515
       Atomic Center   16 is at   2.196182 -2.525924 -1.041299
       Atomic Center   17 is at   3.369257 -2.960638 -0.419060
       Atomic Center   18 is at   4.941301 -2.450987  0.960819
       Atomic Center   19 is at   1.671529 -3.166424 -1.742507
       Atomic Center   20 is at   3.773734 -3.943935 -0.625693
       Atomic Center   21 is at   3.598837 -0.895246  0.788539
       Atomic Center   22 is at   3.597142  1.649775  2.047834
       Atomic Center   23 is at   4.958434  2.152011  1.356571
       Atomic Center   24 is at   3.379847  1.232151  3.584086
       Atomic Center   25 is at   4.802972  2.323409 -0.166072
       Atomic Center   26 is at   4.600571  1.364257 -0.651990
       Atomic Center   27 is at   3.989074  3.006193 -0.423148
       Atomic Center   28 is at   5.728308  2.726211 -0.595345
       Atomic Center   29 is at   6.188260  1.257726  1.589096
       Atomic Center   30 is at   5.991636  0.236029  1.254627
       Atomic Center   31 is at   7.037383  1.646033  1.013116
       Atomic Center   32 is at   6.494738  1.221214  2.633699
       Atomic Center   33 is at   5.229795  3.549181  1.964714
       Atomic Center   34 is at   5.454822  3.494303  3.033267
       Atomic Center   35 is at   6.092927  4.005592  1.465664
       Atomic Center   36 is at   4.380185  4.228374  1.830285
       Atomic Center   37 is at   4.630530  0.794158  4.357611
       Atomic Center   38 is at   5.379841  1.588074  4.414810
       Atomic Center   39 is at   4.357189  0.531058  5.386944
       Atomic Center   40 is at   5.096789 -0.083719  3.902969
       Atomic Center   41 is at   2.800088  2.487782  4.284141
       Atomic Center   42 is at   2.642383  2.265377  5.346115
       Atomic Center   43 is at   3.472929  3.348529  4.226295
       Atomic Center   44 is at   1.834091  2.779080  3.864192
       Atomic Center   45 is at   2.330123  0.110658  3.713130
       Atomic Center   46 is at   1.387355  0.377311  3.228107
       Atomic Center   47 is at   2.688990 -0.819163  3.265367
       Atomic Center   48 is at   2.119684 -0.080611  4.772528
   22938 points will be used for fitting atomic charges
 Fitting point charges to electrostatic potential
 Charges from ESP fit, RMS=   0.00308 RRMS=   0.29618:
 ESP charges:
               1
     1  C    0.058952
     2  C   -0.239521
     3  C    0.317643
     4  C   -0.250427
     5  C   -0.061767
     6  C   -0.218319
     7  H    0.122138
     8  H    0.097445
     9  H    0.122039
    10  C    0.068296
    11  H    0.036538
    12  H    0.033736
    13  C    0.401484
    14  C   -0.162246
    15  C    0.160920
    16  C   -0.000302
    17  C   -0.268810
    18  H    0.069028
    19  H    0.109930
    20  H    0.132501
    21  N   -0.348647
    22  B    0.009775
    23  C    0.345226
    24  C    0.301737
    25  C   -0.102300
    26  H   -0.041830
    27  H   -0.058299
    28  H    0.038017
    29  C   -0.373139
    30  H    0.061153
    31  H    0.064214
    32  H    0.075452
    33  C   -0.192390
    34  H    0.041326
    35  H    0.028266
    36  H    0.025199
    37  C   -0.448338
    38  H    0.098541
    39  H    0.085216
    40  H    0.093370
    41  C   -0.105359
    42  H    0.019852
    43  H    0.012004
    44  H   -0.021507
    45  C   -0.049166
    46  H   -0.073996
    47  H   -0.037854
    48  H    0.024219
 Sum of ESP charges =  -0.00000
 ESP charges with hydrogens summed into heavy atoms:
               1
     1  C    0.058952
     2  C   -0.239521
     3  C    0.317643
     4  C   -0.128290
     5  C    0.035677
     6  C   -0.096280
    10  C    0.138570
    13  C    0.401484
    14  C   -0.162246
    15  C    0.229949
    16  C    0.109628
    17  C   -0.136308
    21  N   -0.348647
    22  B    0.009775
    23  C    0.345226
    24  C    0.301737
    25  C   -0.164413
    29  C   -0.172321
    33  C   -0.097598
    37  C   -0.171210
    41  C   -0.095009
    45  C   -0.136797
 Charge=  -0.00000 Dipole=    -1.6805    -1.8169    -2.0679 Tot=     3.2252
 -----------------------------------------------------------------

              Electrostatic Properties (Atomic Units)

 -----------------------------------------------------------------
    Center     Electric         -------- Electric Field --------
               Potential          X             Y             Z
 -----------------------------------------------------------------
    1 Atom    -14.763730
    2 Atom    -14.778190
    3 Atom    -14.791699
    4 Atom    -14.777299
    5 Atom    -14.773686
    6 Atom    -14.773359
    7 Atom     -1.113095
    8 Atom     -1.107428
    9 Atom     -1.100646
   10 Atom    -14.747562
   11 Atom     -1.088404
   12 Atom     -1.088237
   13 Atom    -14.738929
   14 Atom    -14.754600
   15 Atom    -14.734697
   16 Atom    -14.746086
   17 Atom    -14.759262
   18 Atom     -1.099026
   19 Atom     -1.079019
   20 Atom     -1.087234
   21 Atom    -18.398071
   22 Atom    -11.473678
   23 Atom    -14.789959
   24 Atom    -14.788818
   25 Atom    -14.808110
   26 Atom     -1.146951
   27 Atom     -1.147567
   28 Atom     -1.146591
   29 Atom    -14.807139
   30 Atom     -1.147676
   31 Atom     -1.145907
   32 Atom     -1.145798
   33 Atom    -14.791294
   34 Atom     -1.132283
   35 Atom     -1.132769
   36 Atom     -1.130244
   37 Atom    -14.803018
   38 Atom     -1.139807
   39 Atom     -1.142977
   40 Atom     -1.143403
   41 Atom    -14.793980
   42 Atom     -1.133864
   43 Atom     -1.132765
   44 Atom     -1.135071
   45 Atom    -14.806203
   46 Atom     -1.145750
   47 Atom     -1.147315
   48 Atom     -1.144620
 -----------------------------------------------------------------
 Unable to Open any file for archive entry.
 1\1\GINC-IRENE5916\SP\RwB97XD\GenECP\C20H26B1N1\PENASFRA\10-Apr-2024\0
 \\# wb97xd/genecp scrf=(solvent=toluene,pcm) nosymm pop=(chelpg) scfcy
 c=300\\tbu_indenoPy_chelpg\\0,1\C,0,0.709711,0.844928,-0.435863\C,0,1.
 846097,0.792743,0.373074\C,0,2.270835,1.836103,1.194908\C,0,1.476682,2
 .986517,1.155338\C,0,0.33745,3.062699,0.350292\C,0,-0.063417,1.995391,
 -0.451553\H,0,1.743532,3.851317,1.754602\H,0,-0.247791,3.976293,0.3508
 47\H,0,-0.951852,2.072811,-1.069149\C,0,0.54851,-0.458302,-1.193329\H,
 0,0.560169,-0.302586,-2.276672\H,0,-0.394851,-0.95664,-0.948323\C,0,2.
 482592,-0.504008,0.186859\C,0,1.741569,-1.25992,-0.729814\C,0,4.027624
 ,-2.122331,0.474515\C,0,2.196182,-2.525924,-1.041299\C,0,3.369257,-2.9
 60638,-0.41906\H,0,4.941301,-2.450987,0.960819\H,0,1.671529,-3.166424,
 -1.742507\H,0,3.773734,-3.943935,-0.625693\N,0,3.598837,-0.895246,0.78
 8539\B,0,3.597142,1.649775,2.047834\C,0,4.958434,2.152011,1.356571\C,0
 ,3.379847,1.232151,3.584086\C,0,4.802972,2.323409,-0.166072\H,0,4.6005
 71,1.364257,-0.65199\H,0,3.989074,3.006193,-0.423148\H,0,5.728308,2.72
 6211,-0.595345\C,0,6.18826,1.257726,1.589096\H,0,5.991636,0.236029,1.2
 54627\H,0,7.037383,1.646033,1.013116\H,0,6.494738,1.221214,2.633699\C,
 0,5.229795,3.549181,1.964714\H,0,5.454822,3.494303,3.033267\H,0,6.0929
 27,4.005592,1.465664\H,0,4.380185,4.228374,1.830285\C,0,4.63053,0.7941
 58,4.357611\H,0,5.379841,1.588074,4.41481\H,0,4.357189,0.531058,5.3869
 44\H,0,5.096789,-0.083719,3.902969\C,0,2.800088,2.487782,4.284141\H,0,
 2.642383,2.265377,5.346115\H,0,3.472929,3.348529,4.226295\H,0,1.834091
 ,2.77908,3.864192\C,0,2.330123,0.110658,3.71313\H,0,1.387355,0.377311,
 3.228107\H,0,2.68899,-0.819163,3.265367\H,0,2.119684,-0.080611,4.77252
 8\\Version=AS64L-G16RevC.02\HF=-857.3680971\RMSD=7.541e-09\Dipole=-0.6
 794262,-0.7166365,-0.8277781\Quadrupole=-5.0090607,6.9435895,-1.934528
 8,-5.8969211,-0.7211991,3.5232412\PG=C01 [X(C20H26B1N1)]\\@
 The archive entry for this job was punched.


 MAN IS A SINGULAR CREATURE.  HE HAS A SET OF GIFTS
 WHICH MAKE HIM UNIQUE AMONG THE ANIMALS: SO THAT, 
 UNLIKE THEM, HE IS NOT A FIGURE IN THE LANDSCAPE --
 HE IS A SHAPER OF THE LANDSCAPE.

                       -- JACOB BRONOWSKI
 Job cpu time:       0 days  3 hours 15 minutes 17.4 seconds.
 Elapsed time:       0 days  0 hours  1 minutes 54.7 seconds.
 File lengths (MBytes):  RWF=    372 Int=      0 D2E=      0 Chk=     28 Scr=      1
 Normal termination of Gaussian 16 at Wed Apr 10 16:26:52 2024.
