 Entering Gaussian System, Link 0=/ccc/products/gaussian-16-C.02/system/default/g16/g16
 Input=tbu_quinoline_chelpg.gjf
 Output=tbu_quinoline_chelpg.log
 Initial command:
 /ccc/products/gaussian-16-C.02/system/default/g16/l1.exe "/ccc/scratch/cont003/gen7343/penasfra/flp/b-n_flp/tbu_quinoline/reac/Gau-293249.inp" -scrdir="/ccc/scratch/cont003/gen7343/penasfra/flp/b-n_flp/tbu_quinoline/reac/"
 Entering Link 1 = /ccc/products/gaussian-16-C.02/system/default/g16/l1.exe PID=    293298.
  
 Copyright (c) 1988-2021, Gaussian, Inc.  All Rights Reserved.
  
 This is part of the Gaussian(R) 16 program.  It is based on
 the Gaussian(R) 09 system (copyright 2009, Gaussian, Inc.),
 the Gaussian(R) 03 system (copyright 2003, Gaussian, Inc.),
 the Gaussian(R) 98 system (copyright 1998, Gaussian, Inc.),
 the Gaussian(R) 94 system (copyright 1995, Gaussian, Inc.),
 the Gaussian 92(TM) system (copyright 1992, Gaussian, Inc.),
 the Gaussian 90(TM) system (copyright 1990, Gaussian, Inc.),
 the Gaussian 88(TM) system (copyright 1988, Gaussian, Inc.),
 the Gaussian 86(TM) system (copyright 1986, Carnegie Mellon
 University), and the Gaussian 82(TM) system (copyright 1983,
 Carnegie Mellon University). Gaussian is a federally registered
 trademark of Gaussian, Inc.
  
 This software contains proprietary and confidential information,
 including trade secrets, belonging to Gaussian, Inc.
  
 This software is provided under written license and may be
 used, copied, transmitted, or stored only in accord with that
 written license.
  
 The following legend is applicable only to US Government
 contracts under FAR:
  
                    RESTRICTED RIGHTS LEGEND
  
 Use, reproduction and disclosure by the US Government is
 subject to restrictions as set forth in subparagraphs (a)
 and (c) of the Commercial Computer Software - Restricted
 Rights clause in FAR 52.227-19.
  
 Gaussian, Inc.
 340 Quinnipiac St., Bldg. 40, Wallingford CT 06492
  
  
 ---------------------------------------------------------------
 Warning -- This program may not be used in any manner that
 competes with the business of Gaussian, Inc. or will provide
 assistance to any competitor of Gaussian, Inc.  The licensee
 of this program is prohibited from giving any competitor of
 Gaussian, Inc. access to this program.  By using this program,
 the user acknowledges that Gaussian, Inc. is engaged in the
 business of creating and licensing software in the field of
 computational chemistry and represents and warrants to the
 licensee that it is not a competitor of Gaussian, Inc. and that
 it will not use this program in any manner prohibited above.
 ---------------------------------------------------------------
  

 Cite this work as:
 Gaussian 16, Revision C.02,
 M. J. Frisch, G. W. Trucks, H. B. Schlegel, G. E. Scuseria, 
 M. A. Robb, J. R. Cheeseman, G. Scalmani, V. Barone, 
 G. A. Petersson, H. Nakatsuji, X. Li, M. Caricato, A. V. Marenich, 
 J. Bloino, B. G. Janesko, R. Gomperts, B. Mennucci, H. P. Hratchian, 
 J. V. Ortiz, A. F. Izmaylov, J. L. Sonnenberg, D. Williams-Young, 
 F. Ding, F. Lipparini, F. Egidi, J. Goings, B. Peng, A. Petrone, 
 T. Henderson, D. Ranasinghe, V. G. Zakrzewski, J. Gao, N. Rega, 
 G. Zheng, W. Liang, M. Hada, M. Ehara, K. Toyota, R. Fukuda, 
 J. Hasegawa, M. Ishida, T. Nakajima, Y. Honda, O. Kitao, H. Nakai, 
 T. Vreven, K. Throssell, J. A. Montgomery, Jr., J. E. Peralta, 
 F. Ogliaro, M. J. Bearpark, J. J. Heyd, E. N. Brothers, K. N. Kudin, 
 V. N. Staroverov, T. A. Keith, R. Kobayashi, J. Normand, 
 K. Raghavachari, A. P. Rendell, J. C. Burant, S. S. Iyengar, 
 J. Tomasi, M. Cossi, J. M. Millam, M. Klene, C. Adamo, R. Cammi, 
 J. W. Ochterski, R. L. Martin, K. Morokuma, O. Farkas, 
 J. B. Foresman, and D. J. Fox, Gaussian, Inc., Wallingford CT, 2019.
 
 ******************************************
 Gaussian 16:  AS64L-G16RevC.02  7-Dec-2021
                10-Apr-2024 
 ******************************************
 %nprocshared=128
 Will use up to  128 processors via shared memory.
 %mem=30GB
 %chk=tbu_quinoline_chelpg.chk
 ----------------------------------------------------------------------
 # wb97xd/genecp scrf=(solvent=toluene,pcm) nosymm pop=(chelpg) scfcyc=
 300
 ----------------------------------------------------------------------
 1/38=1,172=1/1;
 2/12=2,15=1,17=6,18=5,40=1/2;
 3/5=7,11=2,16=1,17=8,25=1,30=1,70=2201,72=13,74=-58/1,2,3;
 4//1;
 5/5=2,7=300,38=5,53=13/2;
 6/7=2,8=2,9=2,10=2,15=8,20=3,28=1/1,2;
 99/5=1,9=1/99;
 --------------------
 tbu_quinoline_chelpg
 --------------------
 Symbolic Z-matrix:
 Charge =  0 Multiplicity = 1
 C                    -3.83619  -0.02112   1.14277 
 C                    -2.67371  -0.07479   0.41175 
 C                    -2.19838   1.1307   -0.17124 
 C                    -2.90084   2.34868  -0.01835 
 C                    -4.09902   2.35354   0.73871 
 C                    -4.54873   1.19196   1.30603 
 H                    -4.22605  -0.91615   1.61765 
 C                    -2.35182   3.4981   -0.63511 
 H                    -4.64526   3.28283   0.8625 
 H                    -5.46278   1.19452   1.88984 
 C                    -1.18292   3.38869  -1.33691 
 C                    -0.55509   2.12449  -1.42669 
 H                    -2.86228   4.45161  -0.54302 
 H                    -0.73218   4.24645  -1.82097 
 H                     0.37578   2.02343  -1.97892 
 N                    -1.03223   1.03668  -0.87514 
 B                    -1.74425  -1.32953   0.14166 
 C                    -0.5552   -1.60181   1.18826 
 C                    -2.19577  -2.28582  -1.06391 
 C                    -0.45345  -0.4921    2.25074 
 H                    -0.22064   0.4748    1.79554 
 H                    -1.38385  -0.37917   2.81429 
 H                     0.34535  -0.72606   2.96473 
 C                     0.81592  -1.6948    0.49018 
 H                     1.60577  -1.78209   1.24635 
 H                     0.89547  -2.55933  -0.16857 
 H                     1.01231  -0.79596  -0.10094 
 C                    -0.84446  -2.92709   1.927 
 H                    -1.8085   -2.89948   2.44711 
 H                    -0.84947  -3.78804   1.25484 
 H                    -0.0709   -3.10201   2.68424 
 C                    -1.13397  -3.23994  -1.62891 
 H                    -0.72137  -3.90844  -0.86995 
 H                    -1.57942  -3.86916  -2.40917 
 H                    -0.30547  -2.69015  -2.08351 
 C                    -3.35194  -3.13556  -0.4757 
 H                    -4.18159  -2.51286  -0.12915 
 H                    -3.74544  -3.79553  -1.25774 
 H                    -3.02555  -3.76767   0.35479 
 C                    -2.76804  -1.47501  -2.24278 
 H                    -3.6004   -0.83791  -1.93266 
 H                    -2.00414  -0.83299  -2.68935 
 H                    -3.13729  -2.15539  -3.01964 
 
                          Input orientation:                          
 ---------------------------------------------------------------------
 Center     Atomic      Atomic             Coordinates (Angstroms)
 Number     Number       Type             X           Y           Z
 ---------------------------------------------------------------------
      1          6           0       -3.836186   -0.021120    1.142771
      2          6           0       -2.673710   -0.074794    0.411747
      3          6           0       -2.198384    1.130698   -0.171235
      4          6           0       -2.900837    2.348679   -0.018350
      5          6           0       -4.099021    2.353535    0.738711
      6          6           0       -4.548732    1.191959    1.306029
      7          1           0       -4.226047   -0.916147    1.617654
      8          6           0       -2.351821    3.498100   -0.635106
      9          1           0       -4.645258    3.282829    0.862502
     10          1           0       -5.462778    1.194517    1.889840
     11          6           0       -1.182917    3.388691   -1.336910
     12          6           0       -0.555085    2.124491   -1.426692
     13          1           0       -2.862276    4.451612   -0.543022
     14          1           0       -0.732177    4.246451   -1.820968
     15          1           0        0.375784    2.023431   -1.978922
     16          7           0       -1.032230    1.036682   -0.875140
     17          5           0       -1.744245   -1.329530    0.141661
     18          6           0       -0.555195   -1.601809    1.188258
     19          6           0       -2.195767   -2.285822   -1.063913
     20          6           0       -0.453452   -0.492099    2.250742
     21          1           0       -0.220643    0.474799    1.795535
     22          1           0       -1.383848   -0.379173    2.814285
     23          1           0        0.345352   -0.726060    2.964732
     24          6           0        0.815919   -1.694799    0.490178
     25          1           0        1.605773   -1.782085    1.246354
     26          1           0        0.895472   -2.559330   -0.168574
     27          1           0        1.012310   -0.795955   -0.100942
     28          6           0       -0.844458   -2.927087    1.926995
     29          1           0       -1.808497   -2.899476    2.447105
     30          1           0       -0.849467   -3.788035    1.254841
     31          1           0       -0.070904   -3.102012    2.684235
     32          6           0       -1.133966   -3.239944   -1.628908
     33          1           0       -0.721365   -3.908442   -0.869949
     34          1           0       -1.579415   -3.869157   -2.409169
     35          1           0       -0.305472   -2.690145   -2.083512
     36          6           0       -3.351940   -3.135561   -0.475696
     37          1           0       -4.181591   -2.512861   -0.129148
     38          1           0       -3.745444   -3.795527   -1.257737
     39          1           0       -3.025554   -3.767670    0.354786
     40          6           0       -2.768044   -1.475014   -2.242776
     41          1           0       -3.600403   -0.837912   -1.932662
     42          1           0       -2.004143   -0.832988   -2.689352
     43          1           0       -3.137292   -2.155392   -3.019640
 ---------------------------------------------------------------------
                    Distance matrix (angstroms):
                    1          2          3          4          5
     1  C    0.000000
     2  C    1.374273   0.000000
     3  C    2.394930   1.420920   0.000000
     4  C    2.799826   2.471799   1.414317   0.000000
     5  C    2.423083   2.834643   2.436340   1.417325   0.000000
     6  C    1.416311   2.433128   2.776724   2.409884   1.368703
     7  H    1.085624   2.138185   3.391329   3.884814   3.388141
     8  C    4.212968   3.736989   2.417294   1.415265   2.500022
     9  H    3.413096   3.919670   3.418695   2.165997   1.085028
    10  H    2.163721   3.402177   3.861136   3.396590   2.127969
    11  C    4.981512   4.156440   2.736513   2.402389   3.726045
    12  C    4.687367   3.564447   2.294391   2.745221   4.159437
    13  H    4.878087   4.629848   3.406970   2.167740   2.752145
    14  H    6.052337   5.237149   3.818285   3.399126   4.633651
    15  H    5.627242   4.406502   3.269716   3.832215   5.245796
    16  N    3.612905   2.363454   1.365370   2.438671   3.707266
    17  B    2.662776   1.584681   2.521283   3.859084   4.412075
    18  C    3.642190   2.724491   3.466250   4.750189   5.329685
    19  C    3.562205   2.700860   3.531216   4.803012   5.328739
    20  C    3.590586   2.913004   3.397680   4.382749   4.865598
    21  H    3.707315   2.869575   2.865283   3.739658   4.437155
    22  H    2.989335   2.743826   3.443328   4.215003   4.375827
    23  H    4.615381   4.007071   4.444371   5.374992   5.847352
    24  C    4.986899   3.848127   4.184128   5.515668   6.372395
    25  H    5.720721   4.682455   4.996546   6.242774   7.064399
    26  H    5.527271   4.387340   4.815419   6.206697   7.064302
    27  H    5.065087   3.790734   3.745062   5.020783   6.062179
    28  C    4.243829   3.711834   4.764589   5.987217   6.315787
    29  H    3.754696   3.587493   4.821827   5.900407   5.979903
    30  H    4.808607   4.222183   5.295961   6.594573   6.967415
    31  H    5.103465   4.593784   5.531339   6.709882   7.055054
    32  C    5.034384   4.068570   4.728669   6.078523   6.759007
    33  H    5.372562   4.489015   5.297426   6.680335   7.294430
    34  H    5.702340   4.853065   5.512715   6.791440   7.414813
    35  H    5.477092   4.321450   4.673196   6.032459   6.913369
    36  C    3.543116   3.258197   4.429938   5.521734   5.671251
    37  H    2.818839   2.917266   4.148542   5.028636   4.943866
    38  H    4.474016   4.216592   5.276512   6.324611   6.474703
    39  H    3.913398   3.710037   4.995490   6.128989   6.226466
    40  C    3.836230   3.002667   3.377207   4.425645   5.031754
    41  H    3.190773   2.633887   2.990603   3.782637   4.191681
    42  H    4.324428   3.261900   3.199173   4.249861   5.127773
    43  H    4.729613   4.039581   4.448971   5.417592   5.948155
                    6          7          8          9         10
     6  C    0.000000
     7  H    2.155307   0.000000
     8  C    3.729974   5.298417   0.000000
     9  H    2.139573   4.286886   2.747549   0.000000
    10  H    1.084584   2.461400   4.621677   2.466741   0.000000
    11  C    4.810350   6.043320   1.367785   4.103221   5.791677
    12  C    4.928143   5.655925   2.396178   4.828216   5.995806
    13  H    4.109557   5.944849   1.085463   2.553542   4.825981
    14  H    5.802941   7.119246   2.142322   4.841671   6.742624
    15  H    5.977718   6.538603   3.379396   5.905136   7.052888
    16  N    4.140941   4.497558   2.803126   4.595492   5.224919
    17  B    3.947000   2.916982   4.927325   5.496303   4.822285
    18  C    4.875177   3.758945   5.706277   6.379218   5.691751
    19  C    4.821621   3.631645   5.801895   6.381297   5.613446
    20  C    4.527676   3.848778   5.277652   5.809348   5.297950
    21  H    4.414328   4.243776   4.426091   5.322856   5.292151
    22  H    3.841846   3.130234   5.279064   5.277927   4.468643
    23  H    5.512001   4.769533   6.170665   6.737711   6.211150
    24  C    6.146419   5.224837   6.186036   7.398639   7.051896
    25  H    6.835673   5.907439   6.861690   8.054569   7.696665
    26  H    6.773919   5.667505   6.888761   8.117489   7.665232
    27  H    6.070960   5.514381   5.481023   7.040794   7.060592
    28  C    5.574386   3.946481   7.079515   7.358144   6.190144
    29  H    5.054778   3.235140   7.122093   6.984202   5.515895
    30  H    6.203831   4.447546   7.675723   8.034866   6.819948
    31  H    6.355201   4.814646   7.731888   8.062854   6.939995
    32  C    6.317931   5.049868   6.918963   7.815553   7.126335
    33  H    6.737782   5.236869   7.587516   8.373333   7.492504
    34  H    6.945101   5.651569   7.617111   8.441216   7.694334
    35  H    6.675700   5.675967   6.676811   7.949161   7.581288
    36  C    4.830557   3.173638   6.710522   6.682752   5.366654
    37  H    3.990015   2.367021   6.303626   5.898167   4.411622
    38  H    5.665085   4.097521   7.451634   7.443669   6.144674
    39  H    5.274737   3.341736   7.363777   7.251948   5.737574
    40  C    4.783055   4.164256   5.243063   5.983624   5.609501
    41  H    3.938124   3.605869   4.695062   5.087747   4.712826
    42  H    5.151545   4.847069   4.806155   6.044097   6.086208
    43  H    5.648746   4.921952   6.185866   6.849762   6.382223
                   11         12         13         14         15
    11  C    0.000000
    12  C    1.414368   0.000000
    13  H    2.140165   3.394038   0.000000
    14  H    1.083158   2.165532   2.492501   0.000000
    15  H    2.169254   1.087055   4.294520   2.488844   0.000000
    16  N    2.401642   1.309658   3.888588   3.359649   2.043162
    17  B    4.976231   3.975436   5.927933   5.997313   4.498193
    18  C    5.628108   4.552282   6.705510   6.579431   4.903072
    19  C    5.770658   4.719566   6.790330   6.736900   5.100958
    20  C    5.335157   4.514465   6.168292   6.253828   4.990549
    21  H    4.385083   3.635393   5.316213   5.250345   4.123168
    22  H    5.609776   4.994103   6.065785   6.580778   5.643017
    23  H    6.145804   5.312347   7.028620   6.984974   5.656884
    24  C    5.759815   4.487875   7.237057   6.560217   4.485020
    25  H    6.417707   5.203443   7.875551   7.156656   5.137823
    26  H    6.408094   5.062130   7.963303   7.190153   4.954708
    27  H    4.884455   3.569782   6.537952   5.606031   3.446870
    28  C    7.117351   6.070370   8.038518   8.094410   6.422835
    29  H    7.365539   6.466652   8.005611   8.392806   6.971070
    30  H    7.637654   6.498865   8.670380   8.603913   6.762514
    31  H    7.715919   6.667120   8.675493   8.644885   6.943683
    32  C    6.635244   5.399366   7.957778   7.499629   5.486800
    33  H    7.326611   6.060849   8.636022   8.210166   6.133569
    34  H    7.347333   6.159410   8.623424   8.180885   6.223384
    35  H    6.187049   4.865639   7.740481   6.954665   4.763701
    36  C    6.929085   6.032822   7.603256   7.947768   6.539940
    37  H    6.728971   6.028283   7.100406   7.774896   6.690985
    38  H    7.627962   6.727076   8.325029   8.606417   7.166931
    39  H    7.580940   6.632831   8.269783   8.615081   7.110003
    40  C    5.195079   4.303442   6.166274   6.087515   4.710880
    41  H    4.905439   4.278528   5.518604   5.838659   4.898927
    42  H    4.508446   3.527146   5.768026   5.307795   3.785220
    43  H    6.114574   5.246206   7.061287   6.942981   5.557640
                   16         17         18         19         20
    16  N    0.000000
    17  B    2.672042   0.000000
    18  C    3.383313   1.607278   0.000000
    19  C    3.525406   1.603676   2.869081   0.000000
    20  C    3.527505   2.610682   1.539701   4.152113   0.000000
    21  H    2.847260   2.883100   2.189295   4.438309   1.093757
    22  H    3.967384   2.859368   2.196695   4.397152   1.093604
    23  H    4.444053   3.563751   2.175725   5.011998   1.096635
    24  C    3.569417   2.609468   1.541401   3.440169   2.481406
    25  H    4.405138   3.556371   2.169253   4.476918   2.629309
    26  H    4.140842   2.928611   2.205057   3.229891   3.456317
    27  H    2.852733   2.818183   2.183692   3.665893   2.787688
    28  C    4.857848   2.559145   1.544593   3.344068   2.487341
    29  H    5.208958   2.789970   2.199864   3.585219   2.769507
    30  H    5.277131   2.843245   2.206947   3.073400   3.465810
    31  H    5.542751   3.522278   2.173268   4.385182   2.673183
    32  C    4.343736   2.675264   3.309817   1.535249   4.802649
    33  H    4.954888   2.953037   3.095866   2.200995   4.634856
    34  H    5.169131   3.603277   4.373943   2.167153   5.864050
    35  H    3.984668   2.978714   3.457068   2.185469   4.862002
    36  C    4.790430   2.495508   3.597627   1.550739   4.777299
    37  H    4.803565   2.722915   3.964382   2.206542   4.862754
    38  H    5.555012   3.470483   4.579627   2.172159   5.836032
    39  H    5.344891   2.762553   3.389440   2.212945   4.575994
    40  C    3.345459   2.599013   4.084700   1.540983   5.149288
    41  H    3.350816   2.826628   4.426847   2.196399   5.246309
    42  H    2.780584   2.885955   4.210273   2.188492   5.188967
    43  H    4.384005   3.551965   4.967905   2.174477   6.143815
                   21         22         23         24         25
    21  H    0.000000
    22  H    1.766399   0.000000
    23  H    1.769021   1.770056   0.000000
    24  C    2.735978   3.459960   2.698760   0.000000
    25  H    2.954813   3.655736   2.378376   1.096946   0.000000
    26  H    3.782774   4.341179   3.671664   1.089815   1.763706
    27  H    2.594535   3.796555   3.138164   1.093578   1.771964
    28  C    3.461106   2.751380   2.708702   2.517902   2.788895
    29  H    3.785704   2.582068   3.103343   3.488319   3.787823
    30  H    4.342755   3.786525   3.704998   2.782060   3.170506
    31  H    3.688602   3.025655   2.428394   2.753287   2.573122
    32  C    5.134227   5.290408   5.441463   3.268035   4.230680
    33  H    5.154448   5.144726   5.096098   3.018841   3.796802
    34  H    6.196430   6.285118   6.516333   4.344154   5.278649
    35  H    5.007102   5.521947   5.455820   2.978609   3.945306
    36  C    5.291334   4.721762   5.595731   4.514394   5.419988
    37  H    5.321619   4.587351   5.766972   5.101754   5.993298
    38  H    6.323162   5.816354   6.632155   5.317358   6.241790
    39  H    5.286003   4.497360   5.237005   4.367155   5.117287
    40  C    5.157420   5.356373   6.113289   4.512442   5.603445
    41  H    5.200523   5.258998   6.290148   5.109629   6.172672
    42  H    5.000539   5.557044   6.123743   4.336459   5.424211
    43  H    6.213747   6.345408   7.069972   5.306491   6.390206
                   26         27         28         29         30
    26  H    0.000000
    27  H    1.768535   0.000000
    28  C    2.748456   3.478770   0.000000
    29  H    3.777423   4.344456   1.095741   0.000000
    30  H    2.565275   3.775832   1.092267   1.769398   0.000000
    31  H    3.060540   3.774714   1.096539   1.765356   1.766339
    32  C    2.591222   3.593642   3.581360   4.145454   2.949127
    33  H    2.219503   3.644801   2.966666   3.633554   2.132051
    34  H    3.586221   4.635679   4.497775   4.957435   3.736894
    35  H    2.264148   3.042218   4.053494   4.778012   3.556107
    36  C    4.297310   4.965972   3.479059   3.313717   3.111728
    37  H    5.077429   5.470390   3.941543   3.523936   3.826819
    38  H    4.924689   5.742110   4.394591   4.275573   3.834030
    39  H    4.136235   5.034195   2.817020   2.571534   2.354967
    40  C    4.347345   4.397687   4.816190   4.994478   4.611326
    41  H    5.127200   4.963273   5.182358   5.161718   5.141114
    42  H    4.212166   3.974950   5.200075   5.540022   5.061841
    43  H    4.955293   5.252244   5.506523   5.674915   5.115746
                   31         32         33         34         35
    31  H    0.000000
    32  C    4.444359   0.000000
    33  H    3.702115   1.092313   0.000000
    34  H    5.367204   1.096878   1.762666   0.000000
    35  H    4.791249   1.093319   1.769166   1.766084   0.000000
    36  C    4.555380   2.502040   2.769965   2.723660   3.473390
    37  H    5.015972   3.473607   3.803892   3.716094   4.344568
    38  H    5.433447   2.695600   3.050932   2.454159   3.706370
    39  H    3.820915   2.791351   2.613251   3.121068   3.808570
    40  C    5.847831   2.482342   3.463397   2.678142   2.750667
    41  H    6.236926   3.456202   4.341241   3.674221   3.782868
    42  H    6.145024   2.770413   3.796599   3.078509   2.588737
    43  H    6.544694   2.669027   3.678459   2.395130   3.030099
                   36         37         38         39         40
    36  C    0.000000
    37  H    1.093696   0.000000
    38  H    1.096352   1.763284   0.000000
    39  H    1.093522   1.773460   1.766139   0.000000
    40  C    2.494178   2.746391   2.703774   3.474178   0.000000
    41  H    2.731973   2.529011   3.037112   3.761164   1.093111
    42  H    3.466796   3.757379   3.722672   4.349990   1.093239
    43  H    2.734677   3.094073   2.482779   3.741481   1.096711
                   41         42         43
    41  H    0.000000
    42  H    1.766536   0.000000
    43  H    1.769674   1.772532   0.000000
 Symmetry turned off by external request.
 Stoichiometry    C17H24BN
 Framework group  C1[X(C17H24BN)]
 Deg. of freedom   123
 Full point group                 C1      NOp   1
 Rotational constants (GHZ):           0.5558290           0.3013043           0.2874659
 General basis read from cards:  (5D, 7F)
 ======================================================================================================
                                       Pseudopotential Parameters
 ======================================================================================================
  Center     Atomic      Valence      Angular      Power
  Number     Number     Electrons     Momentum     of R      Exponent        Coefficient   SO-Coeffient
 ======================================================================================================
    1          6
                                   No pseudopotential on this center.
    2          6
                                   No pseudopotential on this center.
    3          6
                                   No pseudopotential on this center.
    4          6
                                   No pseudopotential on this center.
    5          6
                                   No pseudopotential on this center.
    6          6
                                   No pseudopotential on this center.
    7          1
                                   No pseudopotential on this center.
    8          6
                                   No pseudopotential on this center.
    9          1
                                   No pseudopotential on this center.
   10          1
                                   No pseudopotential on this center.
   11          6
                                   No pseudopotential on this center.
   12          6
                                   No pseudopotential on this center.
   13          1
                                   No pseudopotential on this center.
   14          1
                                   No pseudopotential on this center.
   15          1
                                   No pseudopotential on this center.
   16          7
                                   No pseudopotential on this center.
   17          5
                                   No pseudopotential on this center.
   18          6
                                   No pseudopotential on this center.
   19          6
                                   No pseudopotential on this center.
   20          6
                                   No pseudopotential on this center.
   21          1
                                   No pseudopotential on this center.
   22          1
                                   No pseudopotential on this center.
   23          1
                                   No pseudopotential on this center.
   24          6
                                   No pseudopotential on this center.
   25          1
                                   No pseudopotential on this center.
   26          1
                                   No pseudopotential on this center.
   27          1
                                   No pseudopotential on this center.
   28          6
                                   No pseudopotential on this center.
   29          1
                                   No pseudopotential on this center.
   30          1
                                   No pseudopotential on this center.
   31          1
                                   No pseudopotential on this center.
   32          6
                                   No pseudopotential on this center.
   33          1
                                   No pseudopotential on this center.
   34          1
                                   No pseudopotential on this center.
   35          1
                                   No pseudopotential on this center.
   36          6
                                   No pseudopotential on this center.
   37          1
                                   No pseudopotential on this center.
   38          1
                                   No pseudopotential on this center.
   39          1
                                   No pseudopotential on this center.
   40          6
                                   No pseudopotential on this center.
   41          1
                                   No pseudopotential on this center.
   42          1
                                   No pseudopotential on this center.
   43          1
                                   No pseudopotential on this center.
 ======================================================================================================
   586 basis functions,   900 primitive gaussians,   605 cartesian basis functions
    69 alpha electrons       69 beta electrons
       nuclear repulsion energy      1463.8121657483 Hartrees.
 NAtoms=   43 NActive=   43 NUniq=   43 SFac= 1.00D+00 NAtFMM=   60 NAOKFM=F Big=F
 Integral buffers will be    131072 words long.
 Raffenetti 2 integral format.
 Two-electron integral symmetry is turned off.
 Nuclear repulsion after empirical dispersion term =     1463.7687309119 Hartrees.
 ------------------------------------------------------------------------------
 Polarizable Continuum Model (PCM)
 =================================
 Model                : PCM.
 Atomic radii         : UFF (Universal Force Field).
 Polarization charges : Total charges.
 Charge compensation  : None.
 Solution method      : On-the-fly selection.
 Cavity type          : Scaled VdW (van der Waals Surface) (Alpha=1.100).
 Cavity algorithm     : GePol (No added spheres)
                        Default sphere list used, NSphG=   43.
                        Lebedev-Laikov grids with approx.  5.0 points / Ang**2.
                        Smoothing algorithm: York/Karplus (Gamma=1.0000).
                        Polarization charges: spherical gaussians, with
                                              point-specific exponents (IZeta= 3).
                        Self-potential: point-specific (ISelfS= 7).
                        Self-field    : sphere-specific E.n sum rule (ISelfD= 2).
 Solvent              : Toluene, Eps=   2.374100 Eps(inf)=   2.238315
 ------------------------------------------------------------------------------
 One-electron integrals computed using PRISM.
   1 Symmetry operations used in ECPInt.
 ECPInt:  NShTT=   27495 NPrTT=   86734 LenC2=   25935 LenP2D=   58748.
 LDataN:  DoStor=T MaxTD1= 4 Len=   56
 Number of processors reduced to  75 by ecpmxn.
 NBasis=   586 RedAO= T EigKep=  1.02D-06  NBF=   586
 NBsUse=   583 1.00D-06 EigRej=  3.52D-07 NBFU=   583
 ExpMin= 3.15D-02 ExpMax= 6.29D+03 ExpMxC= 9.49D+02 IAcc=3 IRadAn=         5 AccDes= 0.00D+00
 Harris functional with IExCor= 4639 and IRadAn=       5 diagonalized for initial guess.
 HarFok:  IExCor= 4639 AccDes= 0.00D+00 IRadAn=         5 IDoV= 1 UseB2=F ITyADJ=14
 ICtDFT=  3500011 ScaDFX=  1.000000  1.000000  1.000000  1.000000
 FoFCou: FMM=F IPFlag=           0 FMFlag=      100000 FMFlg1=           0
         NFxFlg=           0 DoJE=T BraDBF=F KetDBF=T FulRan=T
         wScrn=  0.000000 ICntrl=       500 IOpCl=  0 I1Cent=   200000004 NGrid=           0
         NMat0=    1 NMatS0=      1 NMatT0=    0 NMatD0=    1 NMtDS0=    0 NMtDT0=    0
 Symmetry not used in FoFCou.
 Requested convergence on RMS density matrix=1.00D-08 within 300 cycles.
 Requested convergence on MAX density matrix=1.00D-06.
 Requested convergence on             energy=1.00D-06.
 No special actions if energy rises.
 Inv3:  Mode=1 IEnd=    21147075.
 Iteration    1 A*A^-1 deviation from unit magnitude is 3.89D-15 for   2620.
 Iteration    1 A*A^-1 deviation from orthogonality  is 4.02D-15 for   2653   1528.
 Iteration    1 A^-1*A deviation from unit magnitude is 3.89D-15 for   2620.
 Iteration    1 A^-1*A deviation from orthogonality  is 1.80D-15 for   1862   1004.
 Error on total polarization charges =  0.01055
 SCF Done:  E(RwB97XD) =  -741.843759328     A.U. after   16 cycles
            NFock= 16  Conv=0.62D-08     -V/T= 2.0047

 **********************************************************************

            Population analysis using the SCF Density.

 **********************************************************************

 Alpha  occ. eigenvalues --  -14.43890 -10.33062 -10.32605 -10.31271 -10.30740
 Alpha  occ. eigenvalues --  -10.30134 -10.29534 -10.29461 -10.29271 -10.27495
 Alpha  occ. eigenvalues --  -10.27175 -10.26996 -10.26988 -10.26827 -10.26113
 Alpha  occ. eigenvalues --  -10.25862 -10.25810 -10.25605  -6.84664  -1.05971
 Alpha  occ. eigenvalues --   -0.95809  -0.91975  -0.90333  -0.89008  -0.85849
 Alpha  occ. eigenvalues --   -0.84472  -0.78061  -0.77472  -0.77096  -0.76490
 Alpha  occ. eigenvalues --   -0.74516  -0.73240  -0.70767  -0.66135  -0.62969
 Alpha  occ. eigenvalues --   -0.62409  -0.61012  -0.60337  -0.56792  -0.54867
 Alpha  occ. eigenvalues --   -0.54257  -0.53070  -0.52088  -0.51638  -0.51330
 Alpha  occ. eigenvalues --   -0.51039  -0.50614  -0.50279  -0.49866  -0.48992
 Alpha  occ. eigenvalues --   -0.47063  -0.46104  -0.45775  -0.45208  -0.44398
 Alpha  occ. eigenvalues --   -0.44117  -0.43705  -0.43454  -0.43402  -0.41456
 Alpha  occ. eigenvalues --   -0.40546  -0.39713  -0.39458  -0.39235  -0.36682
 Alpha  occ. eigenvalues --   -0.35039  -0.34549  -0.33122  -0.30253
 Alpha virt. eigenvalues --    0.00135   0.03707   0.03776   0.04330   0.04627
 Alpha virt. eigenvalues --    0.05181   0.05481   0.06021   0.06458   0.06526
 Alpha virt. eigenvalues --    0.07118   0.07340   0.07573   0.07819   0.08046
 Alpha virt. eigenvalues --    0.08461   0.09487   0.09718   0.09972   0.10168
 Alpha virt. eigenvalues --    0.10307   0.10677   0.11169   0.12190   0.12578
 Alpha virt. eigenvalues --    0.13147   0.13387   0.13567   0.14003   0.14129
 Alpha virt. eigenvalues --    0.14392   0.15009   0.15331   0.15526   0.15793
 Alpha virt. eigenvalues --    0.16226   0.16444   0.16518   0.16904   0.17169
 Alpha virt. eigenvalues --    0.17438   0.17613   0.18013   0.18103   0.18581
 Alpha virt. eigenvalues --    0.18708   0.18909   0.19176   0.19410   0.19509
 Alpha virt. eigenvalues --    0.19966   0.20113   0.20520   0.20777   0.21076
 Alpha virt. eigenvalues --    0.21427   0.21643   0.21752   0.21971   0.22001
 Alpha virt. eigenvalues --    0.22265   0.22560   0.22759   0.23183   0.23576
 Alpha virt. eigenvalues --    0.23733   0.24101   0.24549   0.24936   0.25312
 Alpha virt. eigenvalues --    0.25412   0.25552   0.25974   0.26196   0.26629
 Alpha virt. eigenvalues --    0.26808   0.27114   0.27346   0.27586   0.27861
 Alpha virt. eigenvalues --    0.28206   0.28965   0.29225   0.29525   0.29828
 Alpha virt. eigenvalues --    0.30032   0.30104   0.30471   0.30681   0.30997
 Alpha virt. eigenvalues --    0.31152   0.31470   0.31756   0.32024   0.32286
 Alpha virt. eigenvalues --    0.32521   0.33068   0.33407   0.33519   0.34000
 Alpha virt. eigenvalues --    0.34190   0.34539   0.34750   0.35299   0.35632
 Alpha virt. eigenvalues --    0.35827   0.36015   0.36335   0.36583   0.36900
 Alpha virt. eigenvalues --    0.37405   0.37991   0.38140   0.38394   0.38861
 Alpha virt. eigenvalues --    0.39175   0.39222   0.39517   0.40132   0.40364
 Alpha virt. eigenvalues --    0.40600   0.41863   0.42218   0.42389   0.42954
 Alpha virt. eigenvalues --    0.43360   0.43517   0.43994   0.44303   0.44765
 Alpha virt. eigenvalues --    0.45067   0.45822   0.46279   0.46976   0.47571
 Alpha virt. eigenvalues --    0.48014   0.48486   0.49261   0.49537   0.50979
 Alpha virt. eigenvalues --    0.53787   0.54014   0.55683   0.56148   0.56418
 Alpha virt. eigenvalues --    0.57136   0.57743   0.58325   0.58647   0.59722
 Alpha virt. eigenvalues --    0.61575   0.61978   0.63146   0.63397   0.64265
 Alpha virt. eigenvalues --    0.64719   0.64982   0.65235   0.65430   0.66425
 Alpha virt. eigenvalues --    0.66653   0.67438   0.68009   0.68595   0.69131
 Alpha virt. eigenvalues --    0.69196   0.69791   0.70231   0.70962   0.71462
 Alpha virt. eigenvalues --    0.71793   0.72181   0.73288   0.73627   0.74398
 Alpha virt. eigenvalues --    0.74828   0.75320   0.76481   0.76828   0.76903
 Alpha virt. eigenvalues --    0.77599   0.78419   0.78815   0.78856   0.79452
 Alpha virt. eigenvalues --    0.79883   0.80003   0.80653   0.81348   0.81519
 Alpha virt. eigenvalues --    0.82405   0.82878   0.83398   0.83856   0.84437
 Alpha virt. eigenvalues --    0.84812   0.85284   0.86072   0.86264   0.87030
 Alpha virt. eigenvalues --    0.87241   0.87937   0.88320   0.88856   0.89226
 Alpha virt. eigenvalues --    0.89640   0.90097   0.90776   0.91200   0.91962
 Alpha virt. eigenvalues --    0.92269   0.92628   0.93858   0.94091   0.94831
 Alpha virt. eigenvalues --    0.95716   0.96688   0.97358   0.97795   0.98742
 Alpha virt. eigenvalues --    0.99338   1.00053   1.00629   1.01300   1.02185
 Alpha virt. eigenvalues --    1.04876   1.05842   1.06702   1.07811   1.07996
 Alpha virt. eigenvalues --    1.08504   1.09967   1.10878   1.12379   1.13300
 Alpha virt. eigenvalues --    1.13858   1.14867   1.15514   1.16240   1.16704
 Alpha virt. eigenvalues --    1.17177   1.17634   1.18406   1.18799   1.20291
 Alpha virt. eigenvalues --    1.21287   1.22452   1.23449   1.23876   1.24620
 Alpha virt. eigenvalues --    1.25414   1.28559   1.29071   1.30814   1.32311
 Alpha virt. eigenvalues --    1.33045   1.34451   1.37725   1.38644   1.39725
 Alpha virt. eigenvalues --    1.42022   1.43526   1.45999   1.47511   1.48056
 Alpha virt. eigenvalues --    1.49741   1.51401   1.54226   1.55366   1.56210
 Alpha virt. eigenvalues --    1.56915   1.57570   1.58256   1.59377   1.60485
 Alpha virt. eigenvalues --    1.60933   1.61211   1.62047   1.62133   1.63346
 Alpha virt. eigenvalues --    1.64104   1.64439   1.64954   1.66013   1.66483
 Alpha virt. eigenvalues --    1.66832   1.67671   1.67931   1.68635   1.69720
 Alpha virt. eigenvalues --    1.69946   1.70279   1.70363   1.71474   1.72161
 Alpha virt. eigenvalues --    1.72904   1.73471   1.74428   1.75154   1.76364
 Alpha virt. eigenvalues --    1.76940   1.78556   1.78946   1.79287   1.80321
 Alpha virt. eigenvalues --    1.81102   1.81500   1.82044   1.82775   1.82790
 Alpha virt. eigenvalues --    1.83339   1.83766   1.85086   1.85591   1.86921
 Alpha virt. eigenvalues --    1.87203   1.87923   1.88426   1.89194   1.89952
 Alpha virt. eigenvalues --    1.90453   1.91083   1.92196   1.93414   1.94344
 Alpha virt. eigenvalues --    1.94802   1.96396   1.97289   1.98087   1.99075
 Alpha virt. eigenvalues --    2.00107   2.00303   2.00735   2.02112   2.04288
 Alpha virt. eigenvalues --    2.04622   2.06457   2.06969   2.07345   2.07976
 Alpha virt. eigenvalues --    2.09397   2.10929   2.11967   2.12835   2.13796
 Alpha virt. eigenvalues --    2.15462   2.15591   2.16244   2.17263   2.18863
 Alpha virt. eigenvalues --    2.20507   2.22032   2.22663   2.23546   2.24843
 Alpha virt. eigenvalues --    2.26068   2.26833   2.28343   2.28755   2.29957
 Alpha virt. eigenvalues --    2.31974   2.33416   2.34099   2.34832   2.36225
 Alpha virt. eigenvalues --    2.37692   2.38757   2.39810   2.43490   2.45472
 Alpha virt. eigenvalues --    2.46349   2.47179   2.51105   2.51671   2.52661
 Alpha virt. eigenvalues --    2.53180   2.54811   2.56171   2.57134   2.57477
 Alpha virt. eigenvalues --    2.58394   2.58990   2.59060   2.60888   2.63160
 Alpha virt. eigenvalues --    2.63390   2.63507   2.64451   2.65391   2.65740
 Alpha virt. eigenvalues --    2.66155   2.66447   2.66865   2.67549   2.68062
 Alpha virt. eigenvalues --    2.68657   2.68945   2.69992   2.71814   2.72013
 Alpha virt. eigenvalues --    2.74068   2.74756   2.75662   2.77579   2.78549
 Alpha virt. eigenvalues --    2.79458   2.80940   2.82755   2.83688   2.84854
 Alpha virt. eigenvalues --    2.85087   2.85278   2.85691   2.86336   2.86831
 Alpha virt. eigenvalues --    2.86987   2.88129   2.88657   2.89546   2.90170
 Alpha virt. eigenvalues --    2.90575   2.91776   2.92629   2.92945   2.94447
 Alpha virt. eigenvalues --    2.95441   2.96218   2.96453   2.97980   2.99581
 Alpha virt. eigenvalues --    3.00341   3.01003   3.02770   3.04735   3.05865
 Alpha virt. eigenvalues --    3.07357   3.09720   3.10528   3.11880   3.13679
 Alpha virt. eigenvalues --    3.15746   3.18361   3.19293   3.22930   3.24082
 Alpha virt. eigenvalues --    3.24856   3.25518   3.28686   3.34605   3.36761
 Alpha virt. eigenvalues --    3.38215   3.40859   3.44260   3.45724   3.47810
 Alpha virt. eigenvalues --    3.50636   3.53151   3.55470   3.56009   3.62764
 Alpha virt. eigenvalues --    3.63997   3.65034   3.66870   3.72794   3.82674
 Alpha virt. eigenvalues --    3.87561   3.88677   3.88980   3.89290   3.90475
 Alpha virt. eigenvalues --    3.92005   3.92829   3.93237   3.94301   3.94559
 Alpha virt. eigenvalues --    3.95348   3.96263   3.97162   4.02157   4.07847
 Alpha virt. eigenvalues --    4.12116   4.12388   4.14830   4.16080   4.17373
 Alpha virt. eigenvalues --    4.28852   4.30166   4.39121   4.39635   4.41024
 Alpha virt. eigenvalues --    4.43156   4.62441   4.71873   4.95517   5.36210
 Alpha virt. eigenvalues --   14.89020  23.75968  23.96125  23.99719  24.00315
 Alpha virt. eigenvalues --   24.10368  24.11922  24.13327  24.13681  24.14084
 Alpha virt. eigenvalues --   24.14890  24.15103  24.16839  24.17821  24.18637
 Alpha virt. eigenvalues --   24.28716  24.29669  24.33800  35.84834
          Condensed to atoms (all electrons):
               1          2          3          4          5          6
     1  C    7.990721  -1.120612   0.529957   0.779499  -2.308057   0.442691
     2  C   -1.120612  11.101708  -0.015382  -2.673408   3.391364  -2.614085
     3  C    0.529957  -0.015382   9.642689   2.012570  -1.809891   0.162068
     4  C    0.779499  -2.673408   2.012570  14.621042  -7.411061   0.829108
     5  C   -2.308057   3.391364  -1.809891  -7.411061  15.563939  -1.630955
     6  C    0.442691  -2.614085   0.162068   0.829108  -1.630955   8.593499
     7  H    0.487192  -0.127807   0.054833   0.116914  -0.117573  -0.029242
     8  C   -0.116553  -2.273166  -2.936577  -1.603861  -0.788824   0.444140
     9  H   -0.015121   0.020746   0.009330  -0.095407   0.418315  -0.028181
    10  H   -0.083099   0.062670   0.009797  -0.067476   0.055085   0.360428
    11  C    0.184315   0.464760   1.599146   0.361444  -0.353136  -0.373627
    12  C   -0.290715  -0.314282  -1.150380  -0.202867   0.169726   0.299291
    13  H    0.007980  -0.030313   0.009388  -0.018699  -0.015270   0.035087
    14  H    0.001416  -0.002028  -0.010702   0.010099   0.003955   0.000604
    15  H    0.002332   0.022409   0.042105   0.006558  -0.022753   0.011521
    16  N   -0.153245  -0.099947  -0.240017  -0.198483   0.385284  -0.092951
    17  B   -0.348843   0.336444  -1.280114  -1.212206   0.986772  -0.396932
    18  C    0.195924  -0.520627  -0.257260  -0.218486   0.083312   0.035096
    19  C    0.267374  -0.941820  -0.002298  -0.025601  -0.063030   0.185219
    20  C   -0.035330   0.298510  -0.074730   0.073993   0.000322  -0.083540
    21  H    0.010845  -0.024083   0.004286   0.020965  -0.008761  -0.026658
    22  H    0.004036   0.011236   0.011143   0.030451  -0.007952  -0.009648
    23  H    0.007469   0.003887  -0.001923  -0.006619  -0.001429   0.004641
    24  C    0.046524  -0.119626   0.446538   0.147438  -0.076603  -0.001298
    25  H    0.000826   0.004526   0.015315   0.004043  -0.000346  -0.000350
    26  H    0.002835  -0.011081  -0.002216   0.000235  -0.002311   0.002501
    27  H    0.019336  -0.007825   0.060736   0.003203  -0.009597  -0.001458
    28  C    0.019818   0.016270  -0.037387   0.117975  -0.049877   0.092392
    29  H   -0.009313   0.009186  -0.005589   0.005815   0.001039   0.013260
    30  H   -0.012000   0.014512   0.003289   0.005357  -0.001870  -0.003834
    31  H   -0.003944   0.002059   0.004637   0.002383  -0.000604  -0.000371
    32  C    0.022794  -0.079168   0.068195   0.015509  -0.028457   0.036520
    33  H    0.004204  -0.034270  -0.008278  -0.003497   0.000830   0.001851
    34  H   -0.000546   0.008905   0.000995   0.000704  -0.000161   0.000136
    35  H   -0.013685   0.005422   0.034520   0.016805  -0.004411  -0.003246
    36  C   -0.189780   0.502573   0.080489   0.116459  -0.054350  -0.018338
    37  H    0.024805  -0.015035  -0.006032  -0.016455   0.007515   0.071612
    38  H   -0.004180   0.014279   0.000443  -0.000723  -0.000102   0.001126
    39  H    0.001722  -0.040347  -0.012118  -0.007827   0.002368   0.013863
    40  C   -0.075673   0.224671  -0.174909  -0.052605   0.049531   0.020743
    41  H   -0.002519   0.021862   0.025149   0.023612  -0.028783   0.015738
    42  H    0.001719  -0.017033   0.041142   0.012595  -0.003256  -0.010462
    43  H   -0.003486   0.001757  -0.019186  -0.007819   0.005434  -0.001650
               7          8          9         10         11         12
     1  C    0.487192  -0.116553  -0.015121  -0.083099   0.184315  -0.290715
     2  C   -0.127807  -2.273166   0.020746   0.062670   0.464760  -0.314282
     3  C    0.054833  -2.936577   0.009330   0.009797   1.599146  -1.150380
     4  C    0.116914  -1.603861  -0.095407  -0.067476   0.361444  -0.202867
     5  C   -0.117573  -0.788824   0.418315   0.055085  -0.353136   0.169726
     6  C   -0.029242   0.444140  -0.028181   0.360428  -0.373627   0.299291
     7  H    0.512728  -0.008257   0.000664  -0.009386   0.009260  -0.014313
     8  C   -0.008257  15.000723   0.017847  -0.011005  -2.439690   1.412811
     9  H    0.000664   0.017847   0.448208  -0.004726   0.026463  -0.005033
    10  H   -0.009386  -0.011005  -0.004726   0.447033  -0.002397   0.004316
    11  C    0.009260  -2.439690   0.026463  -0.002397   8.389024  -1.757569
    12  C   -0.014313   1.412811  -0.005033   0.004316  -1.757569   7.654302
    13  H    0.000254   0.388882   0.004376   0.000231  -0.060067   0.027365
    14  H    0.000019  -0.014346   0.000008  -0.000051   0.356697  -0.031943
    15  H   -0.000364  -0.032219  -0.000155   0.000118  -0.122256   0.523582
    16  N   -0.004113  -0.575000  -0.000520   0.002188   0.177749  -0.092661
    17  B   -0.100069  -0.803364   0.000708  -0.006762   0.451679  -0.569380
    18  C   -0.009075  -0.116751   0.000072   0.000212   0.102766  -0.125813
    19  C   -0.032452   0.105114  -0.001134   0.001232  -0.026140   0.003623
    20  C    0.001326   0.011530   0.002343  -0.003052  -0.039132   0.066983
    21  H    0.000857   0.014834  -0.000108  -0.000407   0.020277  -0.041067
    22  H   -0.004458   0.028139   0.000322  -0.001571  -0.014089   0.019627
    23  H   -0.000520  -0.007514   0.000119   0.000150   0.001627  -0.004461
    24  C    0.001284   0.138354  -0.000566  -0.000261  -0.103935   0.129552
    25  H    0.000024   0.003331  -0.000004  -0.000025  -0.001289  -0.000746
    26  H   -0.000173   0.001666  -0.000024   0.000038  -0.001390   0.004413
    27  H    0.001801   0.008288   0.000064  -0.000289   0.016810  -0.045372
    28  C    0.004842   0.016861  -0.000881  -0.000637   0.021115  -0.046016
    29  H   -0.007164   0.001574  -0.000065   0.000303  -0.000150   0.000289
    30  H    0.002713   0.001293  -0.000009  -0.000167   0.000120  -0.001002
    31  H   -0.001249   0.001110  -0.000022  -0.000008  -0.000197   0.000014
    32  C   -0.008026   0.007341  -0.000376   0.000410   0.003261  -0.020921
    33  H    0.000090  -0.000855   0.000001  -0.000030   0.001230  -0.001658
    34  H   -0.000248  -0.000066  -0.000007  -0.000004   0.001292  -0.002475
    35  H    0.000241   0.012548  -0.000074   0.000025  -0.008621   0.009363
    36  C    0.044853   0.012891  -0.001340   0.003487   0.004062  -0.009717
    37  H   -0.006393  -0.001404  -0.000033   0.001862  -0.002302   0.005915
    38  H   -0.000970  -0.000422  -0.000042   0.000204  -0.000325   0.000294
    39  H   -0.001947  -0.002575  -0.000012   0.000161   0.001137  -0.001076
    40  C    0.014881  -0.067679   0.000854   0.001070  -0.085473   0.152070
    41  H    0.001522   0.003354  -0.000452   0.001072  -0.015370   0.024484
    42  H    0.002743   0.005518   0.000002  -0.000155   0.022219  -0.048169
    43  H   -0.000839  -0.005616   0.000040   0.000136   0.000289   0.000704
              13         14         15         16         17         18
     1  C    0.007980   0.001416   0.002332  -0.153245  -0.348843   0.195924
     2  C   -0.030313  -0.002028   0.022409  -0.099947   0.336444  -0.520627
     3  C    0.009388  -0.010702   0.042105  -0.240017  -1.280114  -0.257260
     4  C   -0.018699   0.010099   0.006558  -0.198483  -1.212206  -0.218486
     5  C   -0.015270   0.003955  -0.022753   0.385284   0.986772   0.083312
     6  C    0.035087   0.000604   0.011521  -0.092951  -0.396932   0.035096
     7  H    0.000254   0.000019  -0.000364  -0.004113  -0.100069  -0.009075
     8  C    0.388882  -0.014346  -0.032219  -0.575000  -0.803364  -0.116751
     9  H    0.004376   0.000008  -0.000155  -0.000520   0.000708   0.000072
    10  H    0.000231  -0.000051   0.000118   0.002188  -0.006762   0.000212
    11  C   -0.060067   0.356697  -0.122256   0.177749   0.451679   0.102766
    12  C    0.027365  -0.031943   0.523582  -0.092661  -0.569380  -0.125813
    13  H    0.422956  -0.003019   0.001716  -0.008621  -0.017612  -0.001272
    14  H   -0.003019   0.428587   0.000799   0.013337   0.010905   0.002320
    15  H    0.001716   0.000799   0.477192  -0.116613  -0.049411  -0.017301
    16  N   -0.008621   0.013337  -0.116613   7.352199   0.514067   0.050308
    17  B   -0.017612   0.010905  -0.049411   0.514067  16.241432   1.874322
    18  C   -0.001272   0.002320  -0.017301   0.050308   1.874322   7.499301
    19  C    0.001839  -0.001466  -0.002113  -0.038193   0.549521  -0.228372
    20  C    0.001243  -0.001885   0.005135   0.037750  -0.895332  -0.346774
    21  H   -0.000321  -0.000215  -0.003748   0.011126  -0.250547  -0.055488
    22  H    0.000383  -0.000179   0.001287  -0.015704  -0.297270   0.034092
    23  H    0.000047  -0.000029  -0.000110   0.000500   0.166255  -0.025411
    24  C    0.001642  -0.002077   0.019977  -0.158649  -2.919727  -1.025504
    25  H    0.000014  -0.000034  -0.000553  -0.001887  -0.049175  -0.076324
    26  H    0.000034  -0.000060   0.000693   0.001171   0.022525   0.042296
    27  H   -0.000138   0.000746  -0.006485  -0.020485  -0.209873  -0.061748
    28  C   -0.000531   0.000349  -0.005556   0.010385  -1.868987  -1.026553
    29  H   -0.000017  -0.000014   0.000023   0.000282  -0.220081  -0.088880
    30  H   -0.000007  -0.000003  -0.000115  -0.001035  -0.071084  -0.018757
    31  H    0.000002  -0.000005  -0.000009  -0.000606   0.054757  -0.042167
    32  C   -0.000036   0.000111  -0.000445  -0.040350  -0.664561   0.218537
    33  H   -0.000014   0.000026  -0.000354   0.003981   0.011111   0.113551
    34  H   -0.000013   0.000026  -0.000463   0.000369   0.067116   0.004346
    35  H    0.000096  -0.000141   0.001788  -0.007975  -0.244495  -0.096147
    36  C   -0.000316   0.000118   0.000217   0.026155  -2.029594   0.035832
    37  H    0.000022   0.000002   0.000414   0.003569  -0.129874   0.021654
    38  H   -0.000000  -0.000008   0.000071  -0.000027  -0.024620   0.009754
    39  H   -0.000044   0.000025  -0.000068   0.003766  -0.013636  -0.001796
    40  C    0.000622  -0.000348   0.015336   0.039258  -0.738776   0.083258
    41  H    0.000480  -0.000178   0.002509  -0.013756  -0.206882   0.024172
    42  H   -0.000392   0.000278  -0.004663   0.008889  -0.060415   0.016785
    43  H   -0.000002   0.000028  -0.000156   0.008690   0.090110   0.010962
              19         20         21         22         23         24
     1  C    0.267374  -0.035330   0.010845   0.004036   0.007469   0.046524
     2  C   -0.941820   0.298510  -0.024083   0.011236   0.003887  -0.119626
     3  C   -0.002298  -0.074730   0.004286   0.011143  -0.001923   0.446538
     4  C   -0.025601   0.073993   0.020965   0.030451  -0.006619   0.147438
     5  C   -0.063030   0.000322  -0.008761  -0.007952  -0.001429  -0.076603
     6  C    0.185219  -0.083540  -0.026658  -0.009648   0.004641  -0.001298
     7  H   -0.032452   0.001326   0.000857  -0.004458  -0.000520   0.001284
     8  C    0.105114   0.011530   0.014834   0.028139  -0.007514   0.138354
     9  H   -0.001134   0.002343  -0.000108   0.000322   0.000119  -0.000566
    10  H    0.001232  -0.003052  -0.000407  -0.001571   0.000150  -0.000261
    11  C   -0.026140  -0.039132   0.020277  -0.014089   0.001627  -0.103935
    12  C    0.003623   0.066983  -0.041067   0.019627  -0.004461   0.129552
    13  H    0.001839   0.001243  -0.000321   0.000383   0.000047   0.001642
    14  H   -0.001466  -0.001885  -0.000215  -0.000179  -0.000029  -0.002077
    15  H   -0.002113   0.005135  -0.003748   0.001287  -0.000110   0.019977
    16  N   -0.038193   0.037750   0.011126  -0.015704   0.000500  -0.158649
    17  B    0.549521  -0.895332  -0.250547  -0.297270   0.166255  -2.919727
    18  C   -0.228372  -0.346774  -0.055488   0.034092  -0.025411  -1.025504
    19  C    7.243566   0.070974   0.051859   0.047644   0.000144   0.588700
    20  C    0.070974   6.796397   0.444958   0.368849   0.410198   0.075681
    21  H    0.051859   0.444958   0.565615  -0.009832  -0.045804   0.086038
    22  H    0.047644   0.368849  -0.009832   0.588845  -0.053167   0.145587
    23  H    0.000144   0.410198  -0.045804  -0.053167   0.556759  -0.085551
    24  C    0.588700   0.075681   0.086038   0.145587  -0.085551   8.082783
    25  H    0.011194  -0.029186   0.008486   0.005920  -0.001798   0.472685
    26  H   -0.052927   0.032684  -0.003074  -0.006910   0.007513   0.294311
    27  H    0.051362  -0.037899   0.013292   0.007733  -0.010748   0.511758
    28  C    0.284612  -0.280709   0.093282  -0.007502  -0.093524   0.301523
    29  H   -0.007722   0.030528   0.008323   0.008758  -0.007883   0.070939
    30  H    0.070398   0.052556  -0.002397  -0.001700   0.007855   0.054354
    31  H    0.001221  -0.056747   0.005477   0.001061   0.001255  -0.009263
    32  C   -0.258553  -0.107297  -0.005903  -0.015308   0.001116  -0.161239
    33  H    0.014916   0.001436  -0.000562   0.000333  -0.000940  -0.044749
    34  H   -0.023856  -0.002283   0.000133  -0.000537   0.000082  -0.014938
    35  H   -0.015226  -0.013227  -0.002136   0.000317  -0.000408   0.102459
    36  C   -0.997185  -0.157032  -0.029077  -0.039978   0.002632  -0.177748
    37  H   -0.090959  -0.009186  -0.002658  -0.003271   0.000925  -0.042876
    38  H   -0.044695  -0.003950  -0.000475  -0.000470   0.000048  -0.005139
    39  H   -0.015289  -0.021637  -0.003873  -0.002090  -0.000924  -0.016558
    40  C   -0.496268  -0.109199  -0.041670  -0.007972   0.000785  -0.170193
    41  H   -0.045961  -0.020466  -0.003343  -0.001455  -0.000090  -0.019356
    42  H   -0.018412  -0.001983  -0.000941  -0.002080   0.000812  -0.027475
    43  H   -0.021404  -0.002033  -0.000861   0.000195  -0.000108  -0.002144
              25         26         27         28         29         30
     1  C    0.000826   0.002835   0.019336   0.019818  -0.009313  -0.012000
     2  C    0.004526  -0.011081  -0.007825   0.016270   0.009186   0.014512
     3  C    0.015315  -0.002216   0.060736  -0.037387  -0.005589   0.003289
     4  C    0.004043   0.000235   0.003203   0.117975   0.005815   0.005357
     5  C   -0.000346  -0.002311  -0.009597  -0.049877   0.001039  -0.001870
     6  C   -0.000350   0.002501  -0.001458   0.092392   0.013260  -0.003834
     7  H    0.000024  -0.000173   0.001801   0.004842  -0.007164   0.002713
     8  C    0.003331   0.001666   0.008288   0.016861   0.001574   0.001293
     9  H   -0.000004  -0.000024   0.000064  -0.000881  -0.000065  -0.000009
    10  H   -0.000025   0.000038  -0.000289  -0.000637   0.000303  -0.000167
    11  C   -0.001289  -0.001390   0.016810   0.021115  -0.000150   0.000120
    12  C   -0.000746   0.004413  -0.045372  -0.046016   0.000289  -0.001002
    13  H    0.000014   0.000034  -0.000138  -0.000531  -0.000017  -0.000007
    14  H   -0.000034  -0.000060   0.000746   0.000349  -0.000014  -0.000003
    15  H   -0.000553   0.000693  -0.006485  -0.005556   0.000023  -0.000115
    16  N   -0.001887   0.001171  -0.020485   0.010385   0.000282  -0.001035
    17  B   -0.049175   0.022525  -0.209873  -1.868987  -0.220081  -0.071084
    18  C   -0.076324   0.042296  -0.061748  -1.026553  -0.088880  -0.018757
    19  C    0.011194  -0.052927   0.051362   0.284612  -0.007722   0.070398
    20  C   -0.029186   0.032684  -0.037899  -0.280709   0.030528   0.052556
    21  H    0.008486  -0.003074   0.013292   0.093282   0.008323  -0.002397
    22  H    0.005920  -0.006910   0.007733  -0.007502   0.008758  -0.001700
    23  H   -0.001798   0.007513  -0.010748  -0.093524  -0.007883   0.007855
    24  C    0.472685   0.294311   0.511758   0.301523   0.070939   0.054354
    25  H    0.558152  -0.046915  -0.016070  -0.005252   0.004332  -0.000348
    26  H   -0.046915   0.579143  -0.038886  -0.033928   0.000194   0.005405
    27  H   -0.016070  -0.038886   0.540419   0.108818  -0.000528   0.004681
    28  C   -0.005252  -0.033928   0.108818   7.737735   0.523908   0.311268
    29  H    0.004332   0.000194  -0.000528   0.523908   0.543244  -0.026015
    30  H   -0.000348   0.005405   0.004681   0.311268  -0.026015   0.570510
    31  H   -0.001307   0.000415   0.004210   0.409016  -0.029115  -0.040812
    32  C    0.000216   0.045105  -0.013711   0.014838   0.010805  -0.040395
    33  H   -0.001292  -0.007138   0.002527  -0.060969  -0.003808  -0.021040
    34  H    0.000247   0.001304  -0.000307   0.008845  -0.000959  -0.000345
    35  H   -0.001048   0.004986  -0.000062   0.024817   0.003132  -0.000199
    36  C   -0.008244   0.022481  -0.027267   0.039938   0.007790  -0.008081
    37  H   -0.000610   0.000853  -0.003847  -0.029132  -0.000003  -0.002179
    38  H    0.000018  -0.000780  -0.000605   0.002017  -0.000409   0.000422
    39  H   -0.001940   0.000903  -0.000547   0.026045  -0.008763  -0.017151
    40  C   -0.005280   0.001700  -0.020377  -0.169162  -0.023850  -0.011296
    41  H   -0.000267   0.000404  -0.002639  -0.018035  -0.003621  -0.001237
    42  H    0.000087   0.000315  -0.001426  -0.008987  -0.000399   0.002253
    43  H   -0.000249  -0.001352  -0.000029   0.000256  -0.000297  -0.001739
              31         32         33         34         35         36
     1  C   -0.003944   0.022794   0.004204  -0.000546  -0.013685  -0.189780
     2  C    0.002059  -0.079168  -0.034270   0.008905   0.005422   0.502573
     3  C    0.004637   0.068195  -0.008278   0.000995   0.034520   0.080489
     4  C    0.002383   0.015509  -0.003497   0.000704   0.016805   0.116459
     5  C   -0.000604  -0.028457   0.000830  -0.000161  -0.004411  -0.054350
     6  C   -0.000371   0.036520   0.001851   0.000136  -0.003246  -0.018338
     7  H   -0.001249  -0.008026   0.000090  -0.000248   0.000241   0.044853
     8  C    0.001110   0.007341  -0.000855  -0.000066   0.012548   0.012891
     9  H   -0.000022  -0.000376   0.000001  -0.000007  -0.000074  -0.001340
    10  H   -0.000008   0.000410  -0.000030  -0.000004   0.000025   0.003487
    11  C   -0.000197   0.003261   0.001230   0.001292  -0.008621   0.004062
    12  C    0.000014  -0.020921  -0.001658  -0.002475   0.009363  -0.009717
    13  H    0.000002  -0.000036  -0.000014  -0.000013   0.000096  -0.000316
    14  H   -0.000005   0.000111   0.000026   0.000026  -0.000141   0.000118
    15  H   -0.000009  -0.000445  -0.000354  -0.000463   0.001788   0.000217
    16  N   -0.000606  -0.040350   0.003981   0.000369  -0.007975   0.026155
    17  B    0.054757  -0.664561   0.011111   0.067116  -0.244495  -2.029594
    18  C   -0.042167   0.218537   0.113551   0.004346  -0.096147   0.035832
    19  C    0.001221  -0.258553   0.014916  -0.023856  -0.015226  -0.997185
    20  C   -0.056747  -0.107297   0.001436  -0.002283  -0.013227  -0.157032
    21  H    0.005477  -0.005903  -0.000562   0.000133  -0.002136  -0.029077
    22  H    0.001061  -0.015308   0.000333  -0.000537   0.000317  -0.039978
    23  H    0.001255   0.001116  -0.000940   0.000082  -0.000408   0.002632
    24  C   -0.009263  -0.161239  -0.044749  -0.014938   0.102459  -0.177748
    25  H   -0.001307   0.000216  -0.001292   0.000247  -0.001048  -0.008244
    26  H    0.000415   0.045105  -0.007138   0.001304   0.004986   0.022481
    27  H    0.004210  -0.013711   0.002527  -0.000307  -0.000062  -0.027267
    28  C    0.409016   0.014838  -0.060969   0.008845   0.024817   0.039938
    29  H   -0.029115   0.010805  -0.003808  -0.000959   0.003132   0.007790
    30  H   -0.040812  -0.040395  -0.021040  -0.000345  -0.000199  -0.008081
    31  H    0.522558   0.005884  -0.002864   0.000412   0.000552  -0.002917
    32  C    0.005884   6.321285   0.332208   0.392398   0.434264   0.116552
    33  H   -0.002864   0.332208   0.609222  -0.048871  -0.025152  -0.046064
    34  H    0.000412   0.392398  -0.048871   0.552825  -0.029454  -0.022937
    35  H    0.000552   0.434264  -0.025152  -0.029454   0.549237   0.081691
    36  C   -0.002917   0.116552  -0.046064  -0.022937   0.081691   7.735469
    37  H   -0.000616   0.027297  -0.001076   0.004324  -0.005918   0.420694
    38  H   -0.000176  -0.039273   0.002046   0.000238   0.003865   0.473844
    39  H   -0.000990   0.033968   0.005710  -0.004026   0.001382   0.362150
    40  C   -0.002688  -0.153447   0.055739  -0.062352  -0.004690   0.207511
    41  H    0.000153   0.057846  -0.004889   0.003631   0.002496   0.046426
    42  H   -0.000413  -0.000928  -0.004871   0.001431   0.003938   0.078102
    43  H    0.000145  -0.074689   0.009844   0.004043  -0.004737  -0.048451
              37         38         39         40         41         42
     1  C    0.024805  -0.004180   0.001722  -0.075673  -0.002519   0.001719
     2  C   -0.015035   0.014279  -0.040347   0.224671   0.021862  -0.017033
     3  C   -0.006032   0.000443  -0.012118  -0.174909   0.025149   0.041142
     4  C   -0.016455  -0.000723  -0.007827  -0.052605   0.023612   0.012595
     5  C    0.007515  -0.000102   0.002368   0.049531  -0.028783  -0.003256
     6  C    0.071612   0.001126   0.013863   0.020743   0.015738  -0.010462
     7  H   -0.006393  -0.000970  -0.001947   0.014881   0.001522   0.002743
     8  C   -0.001404  -0.000422  -0.002575  -0.067679   0.003354   0.005518
     9  H   -0.000033  -0.000042  -0.000012   0.000854  -0.000452   0.000002
    10  H    0.001862   0.000204   0.000161   0.001070   0.001072  -0.000155
    11  C   -0.002302  -0.000325   0.001137  -0.085473  -0.015370   0.022219
    12  C    0.005915   0.000294  -0.001076   0.152070   0.024484  -0.048169
    13  H    0.000022  -0.000000  -0.000044   0.000622   0.000480  -0.000392
    14  H    0.000002  -0.000008   0.000025  -0.000348  -0.000178   0.000278
    15  H    0.000414   0.000071  -0.000068   0.015336   0.002509  -0.004663
    16  N    0.003569  -0.000027   0.003766   0.039258  -0.013756   0.008889
    17  B   -0.129874  -0.024620  -0.013636  -0.738776  -0.206882  -0.060415
    18  C    0.021654   0.009754  -0.001796   0.083258   0.024172   0.016785
    19  C   -0.090959  -0.044695  -0.015289  -0.496268  -0.045961  -0.018412
    20  C   -0.009186  -0.003950  -0.021637  -0.109199  -0.020466  -0.001983
    21  H   -0.002658  -0.000475  -0.003873  -0.041670  -0.003343  -0.000941
    22  H   -0.003271  -0.000470  -0.002090  -0.007972  -0.001455  -0.002080
    23  H    0.000925   0.000048  -0.000924   0.000785  -0.000090   0.000812
    24  C   -0.042876  -0.005139  -0.016558  -0.170193  -0.019356  -0.027475
    25  H   -0.000610   0.000018  -0.001940  -0.005280  -0.000267   0.000087
    26  H    0.000853  -0.000780   0.000903   0.001700   0.000404   0.000315
    27  H   -0.003847  -0.000605  -0.000547  -0.020377  -0.002639  -0.001426
    28  C   -0.029132   0.002017   0.026045  -0.169162  -0.018035  -0.008987
    29  H   -0.000003  -0.000409  -0.008763  -0.023850  -0.003621  -0.000399
    30  H   -0.002179   0.000422  -0.017151  -0.011296  -0.001237   0.002253
    31  H   -0.000616  -0.000176  -0.000990  -0.002688   0.000153  -0.000413
    32  C    0.027297  -0.039273   0.033968  -0.153447   0.057846  -0.000928
    33  H   -0.001076   0.002046   0.005710   0.055739  -0.004889  -0.004871
    34  H    0.004324   0.000238  -0.004026  -0.062352   0.003631   0.001431
    35  H   -0.005918   0.003865   0.001382  -0.004690   0.002496   0.003938
    36  C    0.420694   0.473844   0.362150   0.207511   0.046426   0.078102
    37  H    0.573069  -0.024039  -0.016707   0.061118   0.002523   0.005222
    38  H   -0.024039   0.523926  -0.033579  -0.029276   0.002089   0.001418
    39  H   -0.016707  -0.033579   0.539692   0.058288   0.003253  -0.005946
    40  C    0.061118  -0.029276   0.058288   6.736168   0.432508   0.345702
    41  H    0.002523   0.002089   0.003253   0.432508   0.527045  -0.012111
    42  H    0.005222   0.001418  -0.005946   0.345702  -0.012111   0.535720
    43  H   -0.007368   0.001142   0.007835   0.421524  -0.046548  -0.041413
              43
     1  C   -0.003486
     2  C    0.001757
     3  C   -0.019186
     4  C   -0.007819
     5  C    0.005434
     6  C   -0.001650
     7  H   -0.000839
     8  C   -0.005616
     9  H    0.000040
    10  H    0.000136
    11  C    0.000289
    12  C    0.000704
    13  H   -0.000002
    14  H    0.000028
    15  H   -0.000156
    16  N    0.008690
    17  B    0.090110
    18  C    0.010962
    19  C   -0.021404
    20  C   -0.002033
    21  H   -0.000861
    22  H    0.000195
    23  H   -0.000108
    24  C   -0.002144
    25  H   -0.000249
    26  H   -0.001352
    27  H   -0.000029
    28  C    0.000256
    29  H   -0.000297
    30  H   -0.001739
    31  H    0.000145
    32  C   -0.074689
    33  H    0.009844
    34  H    0.004043
    35  H   -0.004737
    36  C   -0.048451
    37  H   -0.007368
    38  H    0.001142
    39  H    0.007835
    40  C    0.421524
    41  H   -0.046548
    42  H   -0.041413
    43  H    0.552007
 Mulliken charges:
               1
     1  C   -0.269631
     2  C    0.542185
     3  C   -0.823774
     4  C    0.488324
     5  C   -0.325368
     6  C   -0.346305
     7  H    0.225599
     8  C    0.167593
     9  H    0.203809
    10  H    0.239282
    11  C   -0.809584
    12  C    0.268912
    13  H    0.252044
    14  H    0.238278
    15  H    0.250131
    16  N    0.229816
    17  B   -0.698103
    18  C   -0.098368
    19  C   -0.099435
    20  C   -0.450785
    21  H    0.203354
    22  H    0.187185
    23  H    0.174142
    24  C   -0.532654
    25  H    0.161126
    26  H    0.133040
    27  H    0.182432
    28  C   -0.443300
    29  H    0.200921
    30  H    0.177833
    31  H    0.179771
    32  C   -0.453376
    33  H    0.152386
    34  H    0.161046
    35  H    0.187107
    36  C   -0.554000
    37  H    0.184576
    38  H    0.177040
    39  H    0.169197
    40  C   -0.420156
    41  H    0.225632
    42  H    0.185041
    43  H    0.177036
 Sum of Mulliken charges =  -0.00000
 Mulliken charges with hydrogens summed into heavy atoms:
               1
     1  C   -0.044032
     2  C    0.542185
     3  C   -0.823774
     4  C    0.488324
     5  C   -0.121559
     6  C   -0.107023
     8  C    0.419637
    11  C   -0.571307
    12  C    0.519043
    16  N    0.229816
    17  B   -0.698103
    18  C   -0.098368
    19  C   -0.099435
    20  C    0.113896
    24  C   -0.056056
    28  C    0.115225
    32  C    0.047163
    36  C   -0.023187
    40  C    0.167554
 Electronic spatial extent (au):  <R**2>=           6582.8067
 Charge=             -0.0000 electrons
 Dipole moment (field-independent basis, Debye):
    X=             -0.9443    Y=              2.1406    Z=             -0.0397  Tot=              2.3400
 Quadrupole moment (field-independent basis, Debye-Ang):
   XX=           -111.4097   YY=           -105.8759   ZZ=           -119.4399
   XY=             -3.5903   XZ=             -5.8308   YZ=             -4.6917
 Traceless Quadrupole moment (field-independent basis, Debye-Ang):
   XX=              0.8321   YY=              6.3659   ZZ=             -7.1980
   XY=             -3.5903   XZ=             -5.8308   YZ=             -4.6917
 Octapole moment (field-independent basis, Debye-Ang**2):
  XXX=            644.7445  YYY=            141.4740  ZZZ=             -0.5269  XYY=            196.1235
  XXY=             47.3023  XXZ=             31.0399  XZZ=            232.0352  YZZ=             28.8579
  YYZ=            -13.5263  XYZ=             -2.4017
 Hexadecapole moment (field-independent basis, Debye-Ang**3):
 XXXX=          -4142.8638 YYYY=          -3424.7282 ZZZZ=          -1447.5845 XXXY=              1.5773
 XXXZ=           -176.6612 YYYX=            -42.8450 YYYZ=             16.5478 ZZZX=            -22.7619
 ZZZY=             66.3791 XXYY=          -1222.0476 XXZZ=           -938.2506 YYZZ=           -837.9841
 XXYZ=             45.9833 YYXZ=             -4.7861 ZZXY=             52.2272
 N-N= 1.463768730912D+03 E-N=-4.647946326764D+03  KE= 7.383681509458D+02
 Breneman (CHELPG) radii used.
 Generate Potential Derived Charges using the Breneman model, NDens= 1.
 Grid spacing= 0.300 Box extension= 2.800
 NStep X,Y,Z=   44     48     40   Total possible points=       84480
 Number of Points to Fit=   21138

 **********************************************************************

            Electrostatic Properties Using The SCF Density.

 **********************************************************************

       Atomic Center    1 is at  -3.836186 -0.021120  1.142771
       Atomic Center    2 is at  -2.673710 -0.074794  0.411747
       Atomic Center    3 is at  -2.198384  1.130698 -0.171235
       Atomic Center    4 is at  -2.900837  2.348679 -0.018350
       Atomic Center    5 is at  -4.099021  2.353535  0.738711
       Atomic Center    6 is at  -4.548732  1.191959  1.306029
       Atomic Center    7 is at  -4.226047 -0.916147  1.617654
       Atomic Center    8 is at  -2.351821  3.498100 -0.635106
       Atomic Center    9 is at  -4.645258  3.282829  0.862502
       Atomic Center   10 is at  -5.462778  1.194517  1.889840
       Atomic Center   11 is at  -1.182917  3.388691 -1.336910
       Atomic Center   12 is at  -0.555085  2.124491 -1.426692
       Atomic Center   13 is at  -2.862276  4.451612 -0.543022
       Atomic Center   14 is at  -0.732177  4.246451 -1.820968
       Atomic Center   15 is at   0.375784  2.023431 -1.978922
       Atomic Center   16 is at  -1.032230  1.036682 -0.875140
       Atomic Center   17 is at  -1.744245 -1.329530  0.141661
       Atomic Center   18 is at  -0.555195 -1.601809  1.188258
       Atomic Center   19 is at  -2.195767 -2.285822 -1.063913
       Atomic Center   20 is at  -0.453452 -0.492099  2.250742
       Atomic Center   21 is at  -0.220643  0.474799  1.795535
       Atomic Center   22 is at  -1.383848 -0.379173  2.814285
       Atomic Center   23 is at   0.345352 -0.726060  2.964732
       Atomic Center   24 is at   0.815919 -1.694799  0.490178
       Atomic Center   25 is at   1.605773 -1.782085  1.246354
       Atomic Center   26 is at   0.895472 -2.559330 -0.168574
       Atomic Center   27 is at   1.012310 -0.795955 -0.100942
       Atomic Center   28 is at  -0.844458 -2.927087  1.926995
       Atomic Center   29 is at  -1.808497 -2.899476  2.447105
       Atomic Center   30 is at  -0.849467 -3.788035  1.254841
       Atomic Center   31 is at  -0.070904 -3.102012  2.684235
       Atomic Center   32 is at  -1.133966 -3.239944 -1.628908
       Atomic Center   33 is at  -0.721365 -3.908442 -0.869949
       Atomic Center   34 is at  -1.579415 -3.869157 -2.409169
       Atomic Center   35 is at  -0.305472 -2.690145 -2.083512
       Atomic Center   36 is at  -3.351940 -3.135561 -0.475696
       Atomic Center   37 is at  -4.181591 -2.512861 -0.129148
       Atomic Center   38 is at  -3.745444 -3.795527 -1.257737
       Atomic Center   39 is at  -3.025554 -3.767670  0.354786
       Atomic Center   40 is at  -2.768044 -1.475014 -2.242776
       Atomic Center   41 is at  -3.600403 -0.837912 -1.932662
       Atomic Center   42 is at  -2.004143 -0.832988 -2.689352
       Atomic Center   43 is at  -3.137292 -2.155392 -3.019640
   21138 points will be used for fitting atomic charges
 Fitting point charges to electrostatic potential
 Charges from ESP fit, RMS=   0.00306 RRMS=   0.32690:
 ESP charges:
               1
     1  C   -0.062683
     2  C   -0.102135
     3  C    0.396265
     4  C   -0.010851
     5  C   -0.213079
     6  C   -0.132114
     7  H    0.096029
     8  C   -0.041413
     9  H    0.134128
    10  H    0.113377
    11  C   -0.276844
    12  C    0.291879
    13  H    0.119257
    14  H    0.132937
    15  H    0.042737
    16  N   -0.486077
    17  B    0.159225
    18  C    0.391292
    19  C    0.271818
    20  C   -0.153352
    21  H   -0.017896
    22  H   -0.042335
    23  H    0.045049
    24  C   -0.372057
    25  H    0.070744
    26  H    0.069340
    27  H    0.059328
    28  C   -0.252629
    29  H    0.048894
    30  H    0.049075
    31  H    0.035919
    32  C   -0.481699
    33  H    0.108127
    34  H    0.099226
    35  H    0.102415
    36  C   -0.071548
    37  H   -0.015281
    38  H    0.013482
    39  H   -0.001448
    40  C   -0.060025
    41  H   -0.060916
    42  H   -0.019914
    43  H    0.023752
 Sum of ESP charges =  -0.00000
 ESP charges with hydrogens summed into heavy atoms:
               1
     1  C    0.033346
     2  C   -0.102135
     3  C    0.396265
     4  C   -0.010851
     5  C   -0.078951
     6  C   -0.018738
     8  C    0.077844
    11  C   -0.143908
    12  C    0.334616
    16  N   -0.486077
    17  B    0.159225
    18  C    0.391292
    19  C    0.271818
    20  C   -0.168534
    24  C   -0.172645
    28  C   -0.118740
    32  C   -0.171931
    36  C   -0.074795
    40  C   -0.117103
 Charge=  -0.00000 Dipole=    -0.9637     2.1457    -0.0324 Tot=     2.3524
 -----------------------------------------------------------------

              Electrostatic Properties (Atomic Units)

 -----------------------------------------------------------------
    Center     Electric         -------- Electric Field --------
               Potential          X             Y             Z
 -----------------------------------------------------------------
    1 Atom    -14.769963
    2 Atom    -14.791795
    3 Atom    -14.738757
    4 Atom    -14.755522
    5 Atom    -14.766949
    6 Atom    -14.767535
    7 Atom     -1.104913
    8 Atom    -14.748090
    9 Atom     -1.094292
   10 Atom     -1.099970
   11 Atom    -14.758214
   12 Atom    -14.731809
   13 Atom     -1.080576
   14 Atom     -1.084483
   15 Atom     -1.096760
   16 Atom    -18.400726
   17 Atom    -11.470226
   18 Atom    -14.786686
   19 Atom    -14.784690
   20 Atom    -14.805209
   21 Atom     -1.144883
   22 Atom     -1.143467
   23 Atom     -1.143764
   24 Atom    -14.802349
   25 Atom     -1.141305
   26 Atom     -1.141790
   27 Atom     -1.144482
   28 Atom    -14.790266
   29 Atom     -1.128876
   30 Atom     -1.130826
   31 Atom     -1.132143
   32 Atom    -14.798759
   33 Atom     -1.135832
   34 Atom     -1.138859
   35 Atom     -1.138911
   36 Atom    -14.788225
   37 Atom     -1.128208
   38 Atom     -1.128353
   39 Atom     -1.128202
   40 Atom    -14.802935
   41 Atom     -1.142547
   42 Atom     -1.144392
   43 Atom     -1.141491
 -----------------------------------------------------------------
 Unable to Open any file for archive entry.
 1\1\GINC-IRENE6104\SP\RwB97XD\GenECP\C17H24B1N1\PENASFRA\10-Apr-2024\0
 \\# wb97xd/genecp scrf=(solvent=toluene,pcm) nosymm pop=(chelpg) scfcy
 c=300\\tbu_quinoline_chelpg\\0,1\C,0,-3.836186,-0.02112,1.142771\C,0,-
 2.67371,-0.074794,0.411747\C,0,-2.198384,1.130698,-0.171235\C,0,-2.900
 837,2.348679,-0.01835\C,0,-4.099021,2.353535,0.738711\C,0,-4.548732,1.
 191959,1.306029\H,0,-4.226047,-0.916147,1.617654\C,0,-2.351821,3.4981,
 -0.635106\H,0,-4.645258,3.282829,0.862502\H,0,-5.462778,1.194517,1.889
 84\C,0,-1.182917,3.388691,-1.33691\C,0,-0.555085,2.124491,-1.426692\H,
 0,-2.862276,4.451612,-0.543022\H,0,-0.732177,4.246451,-1.820968\H,0,0.
 375784,2.023431,-1.978922\N,0,-1.03223,1.036682,-0.87514\B,0,-1.744245
 ,-1.32953,0.141661\C,0,-0.555195,-1.601809,1.188258\C,0,-2.195767,-2.2
 85822,-1.063913\C,0,-0.453452,-0.492099,2.250742\H,0,-0.220643,0.47479
 9,1.795535\H,0,-1.383848,-0.379173,2.814285\H,0,0.345352,-0.72606,2.96
 4732\C,0,0.815919,-1.694799,0.490178\H,0,1.605773,-1.782085,1.246354\H
 ,0,0.895472,-2.55933,-0.168574\H,0,1.01231,-0.795955,-0.100942\C,0,-0.
 844458,-2.927087,1.926995\H,0,-1.808497,-2.899476,2.447105\H,0,-0.8494
 67,-3.788035,1.254841\H,0,-0.070904,-3.102012,2.684235\C,0,-1.133966,-
 3.239944,-1.628908\H,0,-0.721365,-3.908442,-0.869949\H,0,-1.579415,-3.
 869157,-2.409169\H,0,-0.305472,-2.690145,-2.083512\C,0,-3.35194,-3.135
 561,-0.475696\H,0,-4.181591,-2.512861,-0.129148\H,0,-3.745444,-3.79552
 7,-1.257737\H,0,-3.025554,-3.76767,0.354786\C,0,-2.768044,-1.475014,-2
 .242776\H,0,-3.600403,-0.837912,-1.932662\H,0,-2.004143,-0.832988,-2.6
 89352\H,0,-3.137292,-2.155392,-3.01964\\Version=AS64L-G16RevC.02\HF=-7
 41.8437593\RMSD=6.196e-09\Dipole=-0.3715141,0.8421782,-0.0156206\Quadr
 upole=0.6186405,4.732919,-5.3515595,-2.6692745,-4.3350199,-3.4881416\P
 G=C01 [X(C17H24B1N1)]\\@
 The archive entry for this job was punched.


 Where a calculator on the ENIAC is equipped with 18,000
 vacuum tubes and weighs 30 tons, computers inthe future
 may  have only 1,000 vacuum tubes and weigh only 1 1/2 tons.
              ---Popular Mechanics, March 1949
 Job cpu time:       0 days  2 hours 25 minutes  0.5 seconds.
 Elapsed time:       0 days  0 hours  1 minutes 29.4 seconds.
 File lengths (MBytes):  RWF=    302 Int=      0 D2E=      0 Chk=     22 Scr=      1
 Normal termination of Gaussian 16 at Wed Apr 10 16:15:18 2024.
