 Entering Gaussian System, Link 0=/ccc/products/gaussian-16-C.02/system/default/g16/g16
 Input=tbu_naphthalene_chelpg.gjf
 Output=tbu_naphthalene_chelpg.log
 Initial command:
 /ccc/products/gaussian-16-C.02/system/default/g16/l1.exe "/ccc/scratch/cont003/gen7343/penasfra/flp/b-n_flp/tbu_naphtalene/reac/Gau-637835.inp" -scrdir="/ccc/scratch/cont003/gen7343/penasfra/flp/b-n_flp/tbu_naphtalene/reac/"
 Entering Link 1 = /ccc/products/gaussian-16-C.02/system/default/g16/l1.exe PID=    637884.
  
 Copyright (c) 1988-2021, Gaussian, Inc.  All Rights Reserved.
  
 This is part of the Gaussian(R) 16 program.  It is based on
 the Gaussian(R) 09 system (copyright 2009, Gaussian, Inc.),
 the Gaussian(R) 03 system (copyright 2003, Gaussian, Inc.),
 the Gaussian(R) 98 system (copyright 1998, Gaussian, Inc.),
 the Gaussian(R) 94 system (copyright 1995, Gaussian, Inc.),
 the Gaussian 92(TM) system (copyright 1992, Gaussian, Inc.),
 the Gaussian 90(TM) system (copyright 1990, Gaussian, Inc.),
 the Gaussian 88(TM) system (copyright 1988, Gaussian, Inc.),
 the Gaussian 86(TM) system (copyright 1986, Carnegie Mellon
 University), and the Gaussian 82(TM) system (copyright 1983,
 Carnegie Mellon University). Gaussian is a federally registered
 trademark of Gaussian, Inc.
  
 This software contains proprietary and confidential information,
 including trade secrets, belonging to Gaussian, Inc.
  
 This software is provided under written license and may be
 used, copied, transmitted, or stored only in accord with that
 written license.
  
 The following legend is applicable only to US Government
 contracts under FAR:
  
                    RESTRICTED RIGHTS LEGEND
  
 Use, reproduction and disclosure by the US Government is
 subject to restrictions as set forth in subparagraphs (a)
 and (c) of the Commercial Computer Software - Restricted
 Rights clause in FAR 52.227-19.
  
 Gaussian, Inc.
 340 Quinnipiac St., Bldg. 40, Wallingford CT 06492
  
  
 ---------------------------------------------------------------
 Warning -- This program may not be used in any manner that
 competes with the business of Gaussian, Inc. or will provide
 assistance to any competitor of Gaussian, Inc.  The licensee
 of this program is prohibited from giving any competitor of
 Gaussian, Inc. access to this program.  By using this program,
 the user acknowledges that Gaussian, Inc. is engaged in the
 business of creating and licensing software in the field of
 computational chemistry and represents and warrants to the
 licensee that it is not a competitor of Gaussian, Inc. and that
 it will not use this program in any manner prohibited above.
 ---------------------------------------------------------------
  

 Cite this work as:
 Gaussian 16, Revision C.02,
 M. J. Frisch, G. W. Trucks, H. B. Schlegel, G. E. Scuseria, 
 M. A. Robb, J. R. Cheeseman, G. Scalmani, V. Barone, 
 G. A. Petersson, H. Nakatsuji, X. Li, M. Caricato, A. V. Marenich, 
 J. Bloino, B. G. Janesko, R. Gomperts, B. Mennucci, H. P. Hratchian, 
 J. V. Ortiz, A. F. Izmaylov, J. L. Sonnenberg, D. Williams-Young, 
 F. Ding, F. Lipparini, F. Egidi, J. Goings, B. Peng, A. Petrone, 
 T. Henderson, D. Ranasinghe, V. G. Zakrzewski, J. Gao, N. Rega, 
 G. Zheng, W. Liang, M. Hada, M. Ehara, K. Toyota, R. Fukuda, 
 J. Hasegawa, M. Ishida, T. Nakajima, Y. Honda, O. Kitao, H. Nakai, 
 T. Vreven, K. Throssell, J. A. Montgomery, Jr., J. E. Peralta, 
 F. Ogliaro, M. J. Bearpark, J. J. Heyd, E. N. Brothers, K. N. Kudin, 
 V. N. Staroverov, T. A. Keith, R. Kobayashi, J. Normand, 
 K. Raghavachari, A. P. Rendell, J. C. Burant, S. S. Iyengar, 
 J. Tomasi, M. Cossi, J. M. Millam, M. Klene, C. Adamo, R. Cammi, 
 J. W. Ochterski, R. L. Martin, K. Morokuma, O. Farkas, 
 J. B. Foresman, and D. J. Fox, Gaussian, Inc., Wallingford CT, 2019.
 
 ******************************************
 Gaussian 16:  AS64L-G16RevC.02  7-Dec-2021
                10-Apr-2024 
 ******************************************
 %nprocshared=128
 Will use up to  128 processors via shared memory.
 %mem=30GB
 %chk=tbu_naphthalene_chelpg.chk
 ----------------------------------------------------------------------
 # wb97xd/genecp scrf=(solvent=toluene,pcm) nosymm pop=(chelpg) scfcyc=
 300
 ----------------------------------------------------------------------
 1/38=1,172=1/1;
 2/12=2,15=1,17=6,18=5,40=1/2;
 3/5=7,11=2,16=1,17=8,25=1,30=1,70=2201,72=13,74=-58/1,2,3;
 4//1;
 5/5=2,7=300,38=5,53=13/2;
 6/7=2,8=2,9=2,10=2,15=8,20=3,28=1/1,2;
 99/5=1,9=1/99;
 ----------------------
 tbu_naphthalene_chelpg
 ----------------------
 Symbolic Z-matrix:
 Charge =  0 Multiplicity = 1
 C                    -5.37892  -0.82254   0.53759 
 C                    -4.06598  -0.84013   0.16874 
 C                    -3.34658   0.34786  -0.05508 
 C                    -3.98918   1.59752   0.02033 
 C                    -5.35819   1.61056   0.40117 
 C                    -6.01688   0.43855   0.67187 
 H                    -5.94156  -1.73155   0.71445 
 C                    -1.96342   0.1719   -0.30368 
 C                    -3.20304   2.74047  -0.26874 
 H                    -5.87821   2.5593    0.48537 
 H                    -7.05751   0.46494   0.97502 
 C                    -1.87482   2.58632  -0.58325 
 C                    -1.24914   1.31424  -0.58458 
 H                    -3.65387   3.72687  -0.23613 
 H                    -1.27772   3.46405  -0.80908 
 H                    -0.18192   1.26572  -0.77769 
 B                    -1.50724  -1.3445    0.0311 
 N                    -3.26318  -2.0116   -0.18454 
 C                    -3.6093   -3.23625   0.56642 
 H                    -4.62872  -3.55457   0.33053 
 H                    -2.9205   -4.02611   0.2727 
 H                    -3.52626  -3.06886   1.63414 
 C                    -3.61728  -2.27195  -1.61106 
 H                    -3.05493  -3.12176  -1.98573 
 H                    -4.68662  -2.48938  -1.6759 
 H                    -3.39838  -1.38796  -2.20356 
 C                    -0.46748  -2.08357  -1.04733 
 C                    -0.63658  -1.59976  -2.50747 
 H                     0.18061  -1.99549  -3.12374 
 H                    -1.56165  -1.92741  -2.97863 
 H                    -0.60069  -0.50962  -2.57565 
 C                     0.99593  -1.71788  -0.70646 
 H                     1.65747  -2.10286  -1.49235 
 H                     1.15153  -0.63692  -0.65333 
 H                     1.33163  -2.15595   0.2338 
 C                    -0.51759  -3.62596  -1.06091 
 H                     0.27674  -4.01837  -1.70895 
 H                    -0.36933  -4.05714  -0.06965 
 H                    -1.4558   -4.02423  -1.45429 
 C                    -1.1437   -1.40587   1.68542 
 C                    -0.69304  -2.78676   2.20446 
 H                     0.23929  -3.11314   1.73949 
 H                    -0.5089   -2.7387    3.28553 
 H                    -1.43209  -3.57388   2.04015 
 C                     0.0102   -0.42259   2.01137 
 H                     0.18031  -0.41828   3.09524 
 H                     0.95631  -0.68474   1.54376 
 H                    -0.23854   0.60033   1.71917 
 C                    -2.27813  -0.9111    2.61782 
 H                    -1.93078  -0.95611   3.65719 
 H                    -2.54479   0.12835   2.4122 
 H                    -3.20029  -1.49081   2.57325 
 
 Symmetry turned off by external request.
 Stoichiometry    C20H30BN
 Framework group  C1[X(C20H30BN)]
 Deg. of freedom   150
 Full point group                 C1      NOp   1
                          Input orientation:                          
 ---------------------------------------------------------------------
 Center     Atomic      Atomic             Coordinates (Angstroms)
 Number     Number       Type             X           Y           Z
 ---------------------------------------------------------------------
      1          6           0       -5.378921   -0.822544    0.537585
      2          6           0       -4.065984   -0.840129    0.168739
      3          6           0       -3.346584    0.347861   -0.055076
      4          6           0       -3.989184    1.597521    0.020331
      5          6           0       -5.358191    1.610555    0.401173
      6          6           0       -6.016877    0.438547    0.671868
      7          1           0       -5.941564   -1.731546    0.714448
      8          6           0       -1.963424    0.171898   -0.303676
      9          6           0       -3.203044    2.740470   -0.268741
     10          1           0       -5.878211    2.559304    0.485372
     11          1           0       -7.057509    0.464942    0.975017
     12          6           0       -1.874822    2.586321   -0.583248
     13          6           0       -1.249135    1.314235   -0.584575
     14          1           0       -3.653867    3.726873   -0.236126
     15          1           0       -1.277719    3.464050   -0.809081
     16          1           0       -0.181924    1.265720   -0.777687
     17          5           0       -1.507243   -1.344500    0.031101
     18          7           0       -3.263181   -2.011596   -0.184537
     19          6           0       -3.609298   -3.236251    0.566415
     20          1           0       -4.628723   -3.554574    0.330530
     21          1           0       -2.920501   -4.026111    0.272695
     22          1           0       -3.526263   -3.068858    1.634135
     23          6           0       -3.617279   -2.271950   -1.611064
     24          1           0       -3.054933   -3.121760   -1.985733
     25          1           0       -4.686622   -2.489378   -1.675897
     26          1           0       -3.398375   -1.387955   -2.203558
     27          6           0       -0.467481   -2.083570   -1.047334
     28          6           0       -0.636576   -1.599761   -2.507470
     29          1           0        0.180609   -1.995492   -3.123740
     30          1           0       -1.561648   -1.927411   -2.978625
     31          1           0       -0.600687   -0.509624   -2.575652
     32          6           0        0.995925   -1.717879   -0.706458
     33          1           0        1.657471   -2.102856   -1.492349
     34          1           0        1.151528   -0.636917   -0.653327
     35          1           0        1.331633   -2.155951    0.233803
     36          6           0       -0.517592   -3.625964   -1.060912
     37          1           0        0.276741   -4.018369   -1.708948
     38          1           0       -0.369325   -4.057144   -0.069648
     39          1           0       -1.455799   -4.024227   -1.454293
     40          6           0       -1.143704   -1.405865    1.685422
     41          6           0       -0.693043   -2.786760    2.204463
     42          1           0        0.239285   -3.113136    1.739490
     43          1           0       -0.508897   -2.738704    3.285525
     44          1           0       -1.432089   -3.573880    2.040148
     45          6           0        0.010202   -0.422593    2.011368
     46          1           0        0.180314   -0.418284    3.095244
     47          1           0        0.956306   -0.684744    1.543763
     48          1           0       -0.238536    0.600333    1.719173
     49          6           0       -2.278127   -0.911099    2.617821
     50          1           0       -1.930778   -0.956113    3.657185
     51          1           0       -2.544794    0.128349    2.412204
     52          1           0       -3.200287   -1.490811    2.573250
 ---------------------------------------------------------------------
 Rotational constants (GHZ):           0.4250767           0.2723430           0.2439944
 General basis read from cards:  (5D, 7F)
 ======================================================================================================
                                       Pseudopotential Parameters
 ======================================================================================================
  Center     Atomic      Valence      Angular      Power
  Number     Number     Electrons     Momentum     of R      Exponent        Coefficient   SO-Coeffient
 ======================================================================================================
    1          6
                                   No pseudopotential on this center.
    2          6
                                   No pseudopotential on this center.
    3          6
                                   No pseudopotential on this center.
    4          6
                                   No pseudopotential on this center.
    5          6
                                   No pseudopotential on this center.
    6          6
                                   No pseudopotential on this center.
    7          1
                                   No pseudopotential on this center.
    8          6
                                   No pseudopotential on this center.
    9          6
                                   No pseudopotential on this center.
   10          1
                                   No pseudopotential on this center.
   11          1
                                   No pseudopotential on this center.
   12          6
                                   No pseudopotential on this center.
   13          6
                                   No pseudopotential on this center.
   14          1
                                   No pseudopotential on this center.
   15          1
                                   No pseudopotential on this center.
   16          1
                                   No pseudopotential on this center.
   17          5
                                   No pseudopotential on this center.
   18          7
                                   No pseudopotential on this center.
   19          6
                                   No pseudopotential on this center.
   20          1
                                   No pseudopotential on this center.
   21          1
                                   No pseudopotential on this center.
   22          1
                                   No pseudopotential on this center.
   23          6
                                   No pseudopotential on this center.
   24          1
                                   No pseudopotential on this center.
   25          1
                                   No pseudopotential on this center.
   26          1
                                   No pseudopotential on this center.
   27          6
                                   No pseudopotential on this center.
   28          6
                                   No pseudopotential on this center.
   29          1
                                   No pseudopotential on this center.
   30          1
                                   No pseudopotential on this center.
   31          1
                                   No pseudopotential on this center.
   32          6
                                   No pseudopotential on this center.
   33          1
                                   No pseudopotential on this center.
   34          1
                                   No pseudopotential on this center.
   35          1
                                   No pseudopotential on this center.
   36          6
                                   No pseudopotential on this center.
   37          1
                                   No pseudopotential on this center.
   38          1
                                   No pseudopotential on this center.
   39          1
                                   No pseudopotential on this center.
   40          6
                                   No pseudopotential on this center.
   41          6
                                   No pseudopotential on this center.
   42          1
                                   No pseudopotential on this center.
   43          1
                                   No pseudopotential on this center.
   44          1
                                   No pseudopotential on this center.
   45          6
                                   No pseudopotential on this center.
   46          1
                                   No pseudopotential on this center.
   47          1
                                   No pseudopotential on this center.
   48          1
                                   No pseudopotential on this center.
   49          6
                                   No pseudopotential on this center.
   50          1
                                   No pseudopotential on this center.
   51          1
                                   No pseudopotential on this center.
   52          1
                                   No pseudopotential on this center.
 ======================================================================================================
   694 basis functions,  1062 primitive gaussians,   716 cartesian basis functions
    81 alpha electrons       81 beta electrons
       nuclear repulsion energy      1984.2415120068 Hartrees.
 NAtoms=   52 NActive=   52 NUniq=   52 SFac= 1.00D+00 NAtFMM=   60 NAOKFM=F Big=F
 Integral buffers will be    131072 words long.
 Raffenetti 2 integral format.
 Two-electron integral symmetry is turned off.
 Nuclear repulsion after empirical dispersion term =     1984.1775025725 Hartrees.
 ------------------------------------------------------------------------------
 Polarizable Continuum Model (PCM)
 =================================
 Model                : PCM.
 Atomic radii         : UFF (Universal Force Field).
 Polarization charges : Total charges.
 Charge compensation  : None.
 Solution method      : On-the-fly selection.
 Cavity type          : Scaled VdW (van der Waals Surface) (Alpha=1.100).
 Cavity algorithm     : GePol (No added spheres)
                        Default sphere list used, NSphG=   52.
                        Lebedev-Laikov grids with approx.  5.0 points / Ang**2.
                        Smoothing algorithm: York/Karplus (Gamma=1.0000).
                        Polarization charges: spherical gaussians, with
                                              point-specific exponents (IZeta= 3).
                        Self-potential: point-specific (ISelfS= 7).
                        Self-field    : sphere-specific E.n sum rule (ISelfD= 2).
 Solvent              : Toluene, Eps=   2.374100 Eps(inf)=   2.238315
 ------------------------------------------------------------------------------
 One-electron integrals computed using PRISM.
   1 Symmetry operations used in ECPInt.
 ECPInt:  NShTT=   39903 NPrTT=  123742 LenC2=   37718 LenP2D=   84092.
 LDataN:  DoStor=T MaxTD1= 4 Len=   56
 Number of processors reduced to  63 by ecpmxn.
 NBasis=   694 RedAO= T EigKep=  1.24D-06  NBF=   694
 NBsUse=   687 1.00D-06 EigRej=  6.88D-07 NBFU=   687
 ExpMin= 3.15D-02 ExpMax= 6.29D+03 ExpMxC= 9.49D+02 IAcc=3 IRadAn=         5 AccDes= 0.00D+00
 Harris functional with IExCor= 4639 and IRadAn=       5 diagonalized for initial guess.
 HarFok:  IExCor= 4639 AccDes= 0.00D+00 IRadAn=         5 IDoV= 1 UseB2=F ITyADJ=14
 ICtDFT=  3500011 ScaDFX=  1.000000  1.000000  1.000000  1.000000
 FoFCou: FMM=F IPFlag=           0 FMFlag=      100000 FMFlg1=           0
         NFxFlg=           0 DoJE=T BraDBF=F KetDBF=T FulRan=T
         wScrn=  0.000000 ICntrl=       500 IOpCl=  0 I1Cent=   200000004 NGrid=           0
         NMat0=    1 NMatS0=      1 NMatT0=    0 NMatD0=    1 NMtDS0=    0 NMtDT0=    0
 Symmetry not used in FoFCou.
 Requested convergence on RMS density matrix=1.00D-08 within 300 cycles.
 Requested convergence on MAX density matrix=1.00D-06.
 Requested convergence on             energy=1.00D-06.
 No special actions if energy rises.
 Inv3:  Mode=1 IEnd=    22424268.
 Iteration    1 A*A^-1 deviation from unit magnitude is 5.33D-15 for   2707.
 Iteration    1 A*A^-1 deviation from orthogonality  is 3.01D-15 for   1257    178.
 Iteration    1 A^-1*A deviation from unit magnitude is 5.33D-15 for   2707.
 Iteration    1 A^-1*A deviation from orthogonality  is 3.71D-15 for   2730   1963.
 Error on total polarization charges =  0.01250
 SCF Done:  E(RwB97XD) =  -859.768888987     A.U. after   16 cycles
            NFock= 16  Conv=0.42D-08     -V/T= 2.0048

 **********************************************************************

            Population analysis using the SCF Density.

 **********************************************************************

 Alpha  occ. eigenvalues --  -14.50830 -10.33144 -10.32287 -10.32148 -10.29885
 Alpha  occ. eigenvalues --  -10.29877 -10.29710 -10.29323 -10.28783 -10.28710
 Alpha  occ. eigenvalues --  -10.28483 -10.27920 -10.26418 -10.26397 -10.26342
 Alpha  occ. eigenvalues --  -10.25942 -10.25554 -10.25524 -10.25267 -10.25224
 Alpha  occ. eigenvalues --  -10.24787  -6.82790  -1.08302  -0.97970  -0.92657
 Alpha  occ. eigenvalues --   -0.89482  -0.88382  -0.87808  -0.84729  -0.82937
 Alpha  occ. eigenvalues --   -0.82080  -0.77623  -0.77107  -0.76847  -0.76312
 Alpha  occ. eigenvalues --   -0.75418  -0.72258  -0.71072  -0.67658  -0.65763
 Alpha  occ. eigenvalues --   -0.61975  -0.61809  -0.60786  -0.60224  -0.58437
 Alpha  occ. eigenvalues --   -0.56699  -0.56587  -0.55382  -0.53496  -0.52664
 Alpha  occ. eigenvalues --   -0.52464  -0.51746  -0.50832  -0.50398  -0.49747
 Alpha  occ. eigenvalues --   -0.49362  -0.49114  -0.48783  -0.48456  -0.47768
 Alpha  occ. eigenvalues --   -0.46989  -0.46063  -0.46012  -0.45200  -0.44680
 Alpha  occ. eigenvalues --   -0.43924  -0.43835  -0.43220  -0.42666  -0.41842
 Alpha  occ. eigenvalues --   -0.41582  -0.40739  -0.40442  -0.38618  -0.37723
 Alpha  occ. eigenvalues --   -0.36905  -0.36475  -0.34028  -0.33092  -0.32040
 Alpha  occ. eigenvalues --   -0.28200
 Alpha virt. eigenvalues --    0.01661   0.03680   0.04320   0.04506   0.04620
 Alpha virt. eigenvalues --    0.05121   0.05827   0.05860   0.06281   0.06744
 Alpha virt. eigenvalues --    0.07214   0.07457   0.07769   0.08020   0.08368
 Alpha virt. eigenvalues --    0.08640   0.09093   0.09631   0.09740   0.09853
 Alpha virt. eigenvalues --    0.10093   0.11093   0.11236   0.12066   0.12118
 Alpha virt. eigenvalues --    0.12604   0.12838   0.12921   0.13158   0.13600
 Alpha virt. eigenvalues --    0.13822   0.14483   0.14710   0.14892   0.15042
 Alpha virt. eigenvalues --    0.15196   0.15659   0.16108   0.16138   0.16257
 Alpha virt. eigenvalues --    0.16343   0.16713   0.16901   0.17052   0.17231
 Alpha virt. eigenvalues --    0.17472   0.17563   0.17790   0.18239   0.18527
 Alpha virt. eigenvalues --    0.18598   0.18817   0.18992   0.19163   0.19543
 Alpha virt. eigenvalues --    0.19729   0.19908   0.20271   0.20498   0.20673
 Alpha virt. eigenvalues --    0.20978   0.21351   0.21524   0.21602   0.21877
 Alpha virt. eigenvalues --    0.22154   0.22300   0.22594   0.22682   0.22913
 Alpha virt. eigenvalues --    0.23313   0.23618   0.23791   0.23917   0.24180
 Alpha virt. eigenvalues --    0.24337   0.24685   0.25191   0.25453   0.25598
 Alpha virt. eigenvalues --    0.25750   0.26077   0.26573   0.26601   0.27144
 Alpha virt. eigenvalues --    0.27246   0.27505   0.27783   0.27965   0.28024
 Alpha virt. eigenvalues --    0.28380   0.28830   0.29028   0.29170   0.29383
 Alpha virt. eigenvalues --    0.29456   0.29778   0.29903   0.30142   0.30273
 Alpha virt. eigenvalues --    0.30762   0.31081   0.31322   0.31685   0.32026
 Alpha virt. eigenvalues --    0.32104   0.32433   0.32638   0.32980   0.33173
 Alpha virt. eigenvalues --    0.33511   0.33719   0.33737   0.34335   0.34619
 Alpha virt. eigenvalues --    0.34856   0.35309   0.35567   0.35862   0.36066
 Alpha virt. eigenvalues --    0.36225   0.36666   0.36844   0.37190   0.37504
 Alpha virt. eigenvalues --    0.37759   0.37892   0.38124   0.38176   0.38541
 Alpha virt. eigenvalues --    0.38942   0.39095   0.39430   0.40030   0.40215
 Alpha virt. eigenvalues --    0.40677   0.40916   0.41422   0.41785   0.41878
 Alpha virt. eigenvalues --    0.42185   0.42556   0.42825   0.43025   0.43314
 Alpha virt. eigenvalues --    0.44183   0.44259   0.44521   0.45063   0.45664
 Alpha virt. eigenvalues --    0.46081   0.46805   0.47018   0.47201   0.47890
 Alpha virt. eigenvalues --    0.48403   0.48858   0.49407   0.49918   0.51191
 Alpha virt. eigenvalues --    0.51477   0.52678   0.53807   0.55088   0.55643
 Alpha virt. eigenvalues --    0.57055   0.57521   0.57846   0.58808   0.59151
 Alpha virt. eigenvalues --    0.59768   0.60204   0.61542   0.61702   0.62949
 Alpha virt. eigenvalues --    0.63423   0.63956   0.64070   0.65342   0.65699
 Alpha virt. eigenvalues --    0.66395   0.66511   0.66625   0.67049   0.67769
 Alpha virt. eigenvalues --    0.68539   0.68702   0.69060   0.69500   0.69693
 Alpha virt. eigenvalues --    0.70149   0.70632   0.71393   0.71516   0.71634
 Alpha virt. eigenvalues --    0.72058   0.72403   0.72819   0.73353   0.73593
 Alpha virt. eigenvalues --    0.74424   0.74715   0.75799   0.75949   0.76303
 Alpha virt. eigenvalues --    0.76494   0.76916   0.77508   0.78238   0.78327
 Alpha virt. eigenvalues --    0.78663   0.79496   0.80054   0.80544   0.80570
 Alpha virt. eigenvalues --    0.81010   0.81173   0.81734   0.82419   0.82562
 Alpha virt. eigenvalues --    0.83211   0.83529   0.84063   0.84260   0.84969
 Alpha virt. eigenvalues --    0.85077   0.85407   0.86607   0.86732   0.86936
 Alpha virt. eigenvalues --    0.87714   0.88168   0.88731   0.89117   0.89344
 Alpha virt. eigenvalues --    0.89550   0.90295   0.90490   0.90702   0.91447
 Alpha virt. eigenvalues --    0.92112   0.92495   0.93113   0.93152   0.94378
 Alpha virt. eigenvalues --    0.94719   0.94830   0.95193   0.96079   0.96205
 Alpha virt. eigenvalues --    0.97006   0.98183   0.98852   0.99477   1.00362
 Alpha virt. eigenvalues --    1.00849   1.02399   1.02951   1.03677   1.03971
 Alpha virt. eigenvalues --    1.04355   1.05878   1.06186   1.07037   1.07726
 Alpha virt. eigenvalues --    1.08458   1.09256   1.09767   1.10956   1.12342
 Alpha virt. eigenvalues --    1.13376   1.14334   1.15040   1.15352   1.16292
 Alpha virt. eigenvalues --    1.16528   1.18264   1.18593   1.19989   1.20087
 Alpha virt. eigenvalues --    1.21233   1.22032   1.22546   1.23024   1.23794
 Alpha virt. eigenvalues --    1.25083   1.26359   1.26886   1.27306   1.28832
 Alpha virt. eigenvalues --    1.29584   1.30462   1.31733   1.32093   1.34180
 Alpha virt. eigenvalues --    1.34639   1.37173   1.37682   1.38701   1.39932
 Alpha virt. eigenvalues --    1.40815   1.41437   1.43029   1.44351   1.45691
 Alpha virt. eigenvalues --    1.46150   1.49895   1.50719   1.52332   1.53842
 Alpha virt. eigenvalues --    1.54980   1.55414   1.55826   1.56681   1.57976
 Alpha virt. eigenvalues --    1.58266   1.59215   1.59616   1.60807   1.61374
 Alpha virt. eigenvalues --    1.61832   1.62145   1.62669   1.63226   1.63875
 Alpha virt. eigenvalues --    1.63931   1.64747   1.65516   1.66406   1.66549
 Alpha virt. eigenvalues --    1.67192   1.67759   1.68355   1.68858   1.69007
 Alpha virt. eigenvalues --    1.69865   1.70496   1.70866   1.71533   1.71813
 Alpha virt. eigenvalues --    1.72123   1.72626   1.72871   1.73732   1.74365
 Alpha virt. eigenvalues --    1.74931   1.76336   1.76785   1.77280   1.77651
 Alpha virt. eigenvalues --    1.78735   1.79227   1.79600   1.79908   1.80693
 Alpha virt. eigenvalues --    1.81248   1.81784   1.82584   1.83219   1.83506
 Alpha virt. eigenvalues --    1.84158   1.84968   1.85072   1.85390   1.86151
 Alpha virt. eigenvalues --    1.87181   1.87939   1.88164   1.88983   1.89375
 Alpha virt. eigenvalues --    1.89786   1.91540   1.92180   1.93412   1.94116
 Alpha virt. eigenvalues --    1.94605   1.94633   1.95719   1.96393   1.96904
 Alpha virt. eigenvalues --    1.98106   1.98870   1.99032   1.99565   2.00076
 Alpha virt. eigenvalues --    2.01167   2.02180   2.02597   2.02765   2.03977
 Alpha virt. eigenvalues --    2.04427   2.06105   2.06395   2.07163   2.08086
 Alpha virt. eigenvalues --    2.08434   2.09419   2.10507   2.11440   2.12671
 Alpha virt. eigenvalues --    2.13370   2.13635   2.14658   2.15056   2.15802
 Alpha virt. eigenvalues --    2.16268   2.17123   2.18596   2.19025   2.20467
 Alpha virt. eigenvalues --    2.21415   2.21965   2.22741   2.23418   2.24881
 Alpha virt. eigenvalues --    2.25270   2.27191   2.27845   2.28224   2.29755
 Alpha virt. eigenvalues --    2.30605   2.30836   2.32284   2.33243   2.33882
 Alpha virt. eigenvalues --    2.35986   2.37547   2.38946   2.39481   2.40655
 Alpha virt. eigenvalues --    2.43125   2.44571   2.45412   2.45729   2.47086
 Alpha virt. eigenvalues --    2.47988   2.49132   2.50534   2.50834   2.52810
 Alpha virt. eigenvalues --    2.53602   2.55631   2.56101   2.56622   2.57002
 Alpha virt. eigenvalues --    2.58078   2.58476   2.59131   2.60146   2.60858
 Alpha virt. eigenvalues --    2.61214   2.63139   2.63462   2.64089   2.65057
 Alpha virt. eigenvalues --    2.65356   2.65981   2.66570   2.67043   2.67789
 Alpha virt. eigenvalues --    2.68368   2.68969   2.69490   2.69776   2.70848
 Alpha virt. eigenvalues --    2.71394   2.72802   2.72878   2.73672   2.74253
 Alpha virt. eigenvalues --    2.75384   2.76343   2.77342   2.78099   2.79902
 Alpha virt. eigenvalues --    2.80790   2.81426   2.81937   2.82819   2.83201
 Alpha virt. eigenvalues --    2.84227   2.84466   2.85173   2.85910   2.86906
 Alpha virt. eigenvalues --    2.87450   2.87811   2.88157   2.89223   2.89958
 Alpha virt. eigenvalues --    2.90602   2.91207   2.92177   2.93281   2.93623
 Alpha virt. eigenvalues --    2.95022   2.95681   2.95833   2.96376   2.96767
 Alpha virt. eigenvalues --    2.97881   2.98502   2.99641   3.00122   3.01029
 Alpha virt. eigenvalues --    3.02272   3.02606   3.03417   3.03771   3.05287
 Alpha virt. eigenvalues --    3.06587   3.07031   3.07687   3.12094   3.12805
 Alpha virt. eigenvalues --    3.15628   3.17195   3.18830   3.19770   3.21785
 Alpha virt. eigenvalues --    3.23122   3.23980   3.25690   3.26638   3.28873
 Alpha virt. eigenvalues --    3.30558   3.31927   3.35157   3.36748   3.38497
 Alpha virt. eigenvalues --    3.39218   3.42484   3.44163   3.44909   3.49168
 Alpha virt. eigenvalues --    3.49713   3.52413   3.53076   3.55613   3.58754
 Alpha virt. eigenvalues --    3.62383   3.63621   3.65758   3.68029   3.69637
 Alpha virt. eigenvalues --    3.73589   3.78696   3.82094   3.86008   3.86700
 Alpha virt. eigenvalues --    3.89878   3.90887   3.91244   3.91653   3.92308
 Alpha virt. eigenvalues --    3.92452   3.92761   3.94567   3.95142   3.95180
 Alpha virt. eigenvalues --    3.95340   3.96878   3.97380   3.97967   3.99117
 Alpha virt. eigenvalues --    4.00026   4.02529   4.11282   4.14074   4.15284
 Alpha virt. eigenvalues --    4.17631   4.21216   4.27538   4.31162   4.37021
 Alpha virt. eigenvalues --    4.38813   4.40135   4.41609   4.50756   4.60315
 Alpha virt. eigenvalues --    4.85257   4.93560   4.96706   5.02386  14.86118
 Alpha virt. eigenvalues --   23.75255  23.95493  23.99190  24.01921  24.08703
 Alpha virt. eigenvalues --   24.12745  24.12997  24.14334  24.14932  24.16036
 Alpha virt. eigenvalues --   24.16571  24.17417  24.19140  24.21121  24.22270
 Alpha virt. eigenvalues --   24.24489  24.28510  24.29591  24.33699  24.34028
 Alpha virt. eigenvalues --   35.72440
          Condensed to atoms (all electrons):
 Mulliken charges:
               1
     1  C   -0.320872
     2  C    0.531539
     3  C    0.095453
     4  C    0.165721
     5  C   -0.026676
     6  C   -0.658426
     7  H    0.203069
     8  C    0.150435
     9  C   -0.479590
    10  H    0.221870
    11  H    0.237786
    12  C   -0.211702
    13  C   -0.182591
    14  H    0.209194
    15  H    0.233314
    16  H    0.219845
    17  B   -1.140358
    18  N   -0.272777
    19  C   -0.147456
    20  H    0.187886
    21  H    0.252383
    22  H    0.208181
    23  C   -0.248481
    24  H    0.230681
    25  H    0.242083
    26  H    0.275905
    27  C   -0.201697
    28  C   -0.359821
    29  H    0.165576
    30  H    0.102553
    31  H    0.203529
    32  C   -0.450349
    33  H    0.155623
    34  H    0.156446
    35  H    0.166865
    36  C   -0.369970
    37  H    0.172949
    38  H    0.157890
    39  H    0.104247
    40  C   -0.037964
    41  C   -0.371014
    42  H    0.153818
    43  H    0.154283
    44  H    0.128751
    45  C   -0.513726
    46  H    0.167123
    47  H    0.117523
    48  H    0.209552
    49  C   -0.546561
    50  H    0.180404
    51  H    0.218884
    52  H    0.158670
 Sum of Mulliken charges =  -0.00000
 Mulliken charges with hydrogens summed into heavy atoms:
               1
     1  C   -0.117803
     2  C    0.531539
     3  C    0.095453
     4  C    0.165721
     5  C    0.195193
     6  C   -0.420640
     8  C    0.150435
     9  C   -0.270396
    12  C    0.021613
    13  C    0.037254
    17  B   -1.140358
    18  N   -0.272777
    19  C    0.500994
    23  C    0.500188
    27  C   -0.201697
    28  C    0.111837
    32  C    0.028585
    36  C    0.065116
    40  C   -0.037964
    41  C    0.065839
    45  C   -0.019528
    49  C    0.011396
 Electronic spatial extent (au):  <R**2>=           9065.4832
 Charge=             -0.0000 electrons
 Dipole moment (field-independent basis, Debye):
    X=             -3.6481    Y=             -1.9215    Z=             -0.7569  Tot=              4.1921
 Quadrupole moment (field-independent basis, Debye-Ang):
   XX=           -115.7670   YY=           -126.5379   ZZ=           -144.5899
   XY=             13.2263   XZ=              0.0554   YZ=              0.7164
 Traceless Quadrupole moment (field-independent basis, Debye-Ang):
   XX=             13.1980   YY=              2.4270   ZZ=            -15.6250
   XY=             13.2263   XZ=              0.0554   YZ=              0.7164
 Octapole moment (field-independent basis, Debye-Ang**2):
  XXX=            811.0316  YYY=            320.6716  ZZZ=            -49.8252  XYY=            256.1507
  XXY=             56.8849  XXZ=             -4.0727  XZZ=            327.9311  YZZ=            101.0579
  YYZ=            -18.9959  XYZ=             -6.5974
 Hexadecapole moment (field-independent basis, Debye-Ang**3):
 XXXX=          -6788.6020 YYYY=          -3355.9893 ZZZZ=          -1746.8359 XXXY=            -75.9267
 XXXZ=             60.7686 YYYX=           -194.5325 YYYZ=              5.1554 ZZZX=            229.8310
 ZZZY=             28.1228 XXYY=          -1582.4895 XXZZ=          -1605.8832 YYZZ=           -885.5205
 XXYZ=             33.8717 YYXZ=             61.1834 ZZXY=            -48.8020
 N-N= 1.984177502572D+03 E-N=-5.961327144758D+03  KE= 8.556462838622D+02
 Breneman (CHELPG) radii used.
 Generate Potential Derived Charges using the Breneman model, NDens= 1.
 Grid spacing= 0.300 Box extension= 2.800
 NStep X,Y,Z=   49     46     43   Total possible points=       96922
 Number of Points to Fit=   21729

 **********************************************************************

            Electrostatic Properties Using The SCF Density.

 **********************************************************************

       Atomic Center    1 is at  -5.378921 -0.822544  0.537585
       Atomic Center    2 is at  -4.065984 -0.840129  0.168739
       Atomic Center    3 is at  -3.346584  0.347861 -0.055076
       Atomic Center    4 is at  -3.989184  1.597521  0.020331
       Atomic Center    5 is at  -5.358191  1.610555  0.401173
       Atomic Center    6 is at  -6.016877  0.438547  0.671868
       Atomic Center    7 is at  -5.941564 -1.731546  0.714448
       Atomic Center    8 is at  -1.963424  0.171898 -0.303676
       Atomic Center    9 is at  -3.203044  2.740470 -0.268741
       Atomic Center   10 is at  -5.878211  2.559304  0.485372
       Atomic Center   11 is at  -7.057509  0.464942  0.975017
       Atomic Center   12 is at  -1.874822  2.586321 -0.583248
       Atomic Center   13 is at  -1.249135  1.314235 -0.584575
       Atomic Center   14 is at  -3.653867  3.726873 -0.236126
       Atomic Center   15 is at  -1.277719  3.464050 -0.809081
       Atomic Center   16 is at  -0.181924  1.265720 -0.777687
       Atomic Center   17 is at  -1.507243 -1.344500  0.031101
       Atomic Center   18 is at  -3.263181 -2.011596 -0.184537
       Atomic Center   19 is at  -3.609298 -3.236251  0.566415
       Atomic Center   20 is at  -4.628723 -3.554574  0.330530
       Atomic Center   21 is at  -2.920501 -4.026111  0.272695
       Atomic Center   22 is at  -3.526263 -3.068858  1.634135
       Atomic Center   23 is at  -3.617279 -2.271950 -1.611064
       Atomic Center   24 is at  -3.054933 -3.121760 -1.985733
       Atomic Center   25 is at  -4.686622 -2.489378 -1.675897
       Atomic Center   26 is at  -3.398375 -1.387955 -2.203558
       Atomic Center   27 is at  -0.467481 -2.083570 -1.047334
       Atomic Center   28 is at  -0.636576 -1.599761 -2.507470
       Atomic Center   29 is at   0.180609 -1.995492 -3.123740
       Atomic Center   30 is at  -1.561648 -1.927411 -2.978625
       Atomic Center   31 is at  -0.600687 -0.509624 -2.575652
       Atomic Center   32 is at   0.995925 -1.717879 -0.706458
       Atomic Center   33 is at   1.657471 -2.102856 -1.492349
       Atomic Center   34 is at   1.151528 -0.636917 -0.653327
       Atomic Center   35 is at   1.331633 -2.155951  0.233803
       Atomic Center   36 is at  -0.517592 -3.625964 -1.060912
       Atomic Center   37 is at   0.276741 -4.018369 -1.708948
       Atomic Center   38 is at  -0.369325 -4.057144 -0.069648
       Atomic Center   39 is at  -1.455799 -4.024227 -1.454293
       Atomic Center   40 is at  -1.143704 -1.405865  1.685422
       Atomic Center   41 is at  -0.693043 -2.786760  2.204463
       Atomic Center   42 is at   0.239285 -3.113136  1.739490
       Atomic Center   43 is at  -0.508897 -2.738704  3.285525
       Atomic Center   44 is at  -1.432089 -3.573880  2.040148
       Atomic Center   45 is at   0.010202 -0.422593  2.011368
       Atomic Center   46 is at   0.180314 -0.418284  3.095244
       Atomic Center   47 is at   0.956306 -0.684744  1.543763
       Atomic Center   48 is at  -0.238536  0.600333  1.719173
       Atomic Center   49 is at  -2.278127 -0.911099  2.617821
       Atomic Center   50 is at  -1.930778 -0.956113  3.657185
       Atomic Center   51 is at  -2.544794  0.128349  2.412204
       Atomic Center   52 is at  -3.200287 -1.490811  2.573250
   21729 points will be used for fitting atomic charges
 Fitting point charges to electrostatic potential
 Charges from ESP fit, RMS=   0.00317 RRMS=   0.25045:
 ESP charges:
               1
     1  C   -0.120299
     2  C    0.121719
     3  C    0.051535
     4  C    0.195974
     5  C   -0.261120
     6  C   -0.133804
     7  H    0.121548
     8  C   -0.031634
     9  C   -0.291833
    10  H    0.144357
    11  H    0.118446
    12  C   -0.088158
    13  C   -0.089415
    14  H    0.141906
    15  H    0.095899
    16  H    0.093277
    17  B   -0.092076
    18  N   -0.136094
    19  C   -0.250395
    20  H    0.110440
    21  H    0.118345
    22  H    0.132102
    23  C   -0.028539
    24  H    0.104434
    25  H    0.042170
    26  H    0.005994
    27  C    0.470107
    28  C   -0.163054
    29  H    0.015093
    30  H    0.031174
    31  H   -0.036976
    32  C   -0.397360
    33  H    0.074016
    34  H    0.081948
    35  H    0.071458
    36  C   -0.391220
    37  H    0.065468
    38  H    0.081381
    39  H    0.049319
    40  C    0.632210
    41  C   -0.520465
    42  H    0.098525
    43  H    0.085894
    44  H    0.081952
    45  C   -0.339002
    46  H    0.044289
    47  H    0.053127
    48  H    0.021081
    49  C   -0.144280
    50  H    0.006380
    51  H   -0.015148
    52  H   -0.030699
 Sum of ESP charges =  -0.00000
 ESP charges with hydrogens summed into heavy atoms:
               1
     1  C    0.001250
     2  C    0.121719
     3  C    0.051535
     4  C    0.195974
     5  C   -0.116764
     6  C   -0.015358
     8  C   -0.031634
     9  C   -0.149928
    12  C    0.007741
    13  C    0.003862
    17  B   -0.092076
    18  N   -0.136094
    19  C    0.110493
    23  C    0.124060
    27  C    0.470107
    28  C   -0.153762
    32  C   -0.169938
    36  C   -0.195052
    40  C    0.632210
    41  C   -0.254094
    45  C   -0.220505
    49  C   -0.183748
 Charge=  -0.00000 Dipole=    -3.6477    -1.9002    -0.7872 Tot=     4.1876
 -----------------------------------------------------------------

              Electrostatic Properties (Atomic Units)

 -----------------------------------------------------------------
    Center     Electric         -------- Electric Field --------
               Potential          X             Y             Z
 -----------------------------------------------------------------
    1 Atom    -14.758800
    2 Atom    -14.729227
    3 Atom    -14.777979
    4 Atom    -14.766481
    5 Atom    -14.769817
    6 Atom    -14.763318
    7 Atom     -1.079887
    8 Atom    -14.803481
    9 Atom    -14.780701
   10 Atom     -1.100808
   11 Atom     -1.097405
   12 Atom    -14.779621
   13 Atom    -14.786778
   14 Atom     -1.108437
   15 Atom     -1.113703
   16 Atom     -1.122302
   17 Atom    -11.475727
   18 Atom    -18.313690
   19 Atom    -14.725871
   20 Atom     -1.082478
   21 Atom     -1.085564
   22 Atom     -1.088001
   23 Atom    -14.729600
   24 Atom     -1.088004
   25 Atom     -1.088437
   26 Atom     -1.093831
   27 Atom    -14.789798
   28 Atom    -14.806794
   29 Atom     -1.146302
   30 Atom     -1.140247
   31 Atom     -1.146554
   32 Atom    -14.805163
   33 Atom     -1.145825
   34 Atom     -1.143361
   35 Atom     -1.144413
   36 Atom    -14.797115
   37 Atom     -1.138677
   38 Atom     -1.136167
   39 Atom     -1.128661
   40 Atom    -14.791482
   41 Atom    -14.803619
   42 Atom     -1.142617
   43 Atom     -1.145219
   44 Atom     -1.137496
   45 Atom    -14.814658
   46 Atom     -1.152595
   47 Atom     -1.152686
   48 Atom     -1.153688
   49 Atom    -14.807818
   50 Atom     -1.147814
   51 Atom     -1.149555
   52 Atom     -1.140240
 -----------------------------------------------------------------
 Unable to Open any file for archive entry.
 1\1\GINC-IRENE4762\SP\RwB97XD\GenECP\C20H30B1N1\PENASFRA\10-Apr-2024\0
 \\# wb97xd/genecp scrf=(solvent=toluene,pcm) nosymm pop=(chelpg) scfcy
 c=300\\tbu_naphthalene_chelpg\\0,1\C,0,-5.378921,-0.822544,0.537585\C,
 0,-4.065984,-0.840129,0.168739\C,0,-3.346584,0.347861,-0.055076\C,0,-3
 .989184,1.597521,0.020331\C,0,-5.358191,1.610555,0.401173\C,0,-6.01687
 7,0.438547,0.671868\H,0,-5.941564,-1.731546,0.714448\C,0,-1.963424,0.1
 71898,-0.303676\C,0,-3.203044,2.74047,-0.268741\H,0,-5.878211,2.559304
 ,0.485372\H,0,-7.057509,0.464942,0.975017\C,0,-1.874822,2.586321,-0.58
 3248\C,0,-1.249135,1.314235,-0.584575\H,0,-3.653867,3.726873,-0.236126
 \H,0,-1.277719,3.46405,-0.809081\H,0,-0.181924,1.26572,-0.777687\B,0,-
 1.507243,-1.3445,0.031101\N,0,-3.263181,-2.011596,-0.184537\C,0,-3.609
 298,-3.236251,0.566415\H,0,-4.628723,-3.554574,0.33053\H,0,-2.920501,-
 4.026111,0.272695\H,0,-3.526263,-3.068858,1.634135\C,0,-3.617279,-2.27
 195,-1.611064\H,0,-3.054933,-3.12176,-1.985733\H,0,-4.686622,-2.489378
 ,-1.675897\H,0,-3.398375,-1.387955,-2.203558\C,0,-0.467481,-2.08357,-1
 .047334\C,0,-0.636576,-1.599761,-2.50747\H,0,0.180609,-1.995492,-3.123
 74\H,0,-1.561648,-1.927411,-2.978625\H,0,-0.600687,-0.509624,-2.575652
 \C,0,0.995925,-1.717879,-0.706458\H,0,1.657471,-2.102856,-1.492349\H,0
 ,1.151528,-0.636917,-0.653327\H,0,1.331633,-2.155951,0.233803\C,0,-0.5
 17592,-3.625964,-1.060912\H,0,0.276741,-4.018369,-1.708948\H,0,-0.3693
 25,-4.057144,-0.069648\H,0,-1.455799,-4.024227,-1.454293\C,0,-1.143704
 ,-1.405865,1.685422\C,0,-0.693043,-2.78676,2.204463\H,0,0.239285,-3.11
 3136,1.73949\H,0,-0.508897,-2.738704,3.285525\H,0,-1.432089,-3.57388,2
 .040148\C,0,0.010202,-0.422593,2.011368\H,0,0.180314,-0.418284,3.09524
 4\H,0,0.956306,-0.684744,1.543763\H,0,-0.238536,0.600333,1.719173\C,0,
 -2.278127,-0.911099,2.617821\H,0,-1.930778,-0.956113,3.657185\H,0,-2.5
 44794,0.128349,2.412204\H,0,-3.200287,-1.490811,2.57325\\Version=AS64L
 -G16RevC.02\HF=-859.768889\RMSD=4.187e-09\Dipole=-1.4352874,-0.7559692
 ,-0.297768\Quadrupole=9.8123592,1.8044319,-11.6167911,9.8334135,0.0412
 033,0.5326088\PG=C01 [X(C20H30B1N1)]\\@
 The archive entry for this job was punched.


 ... SUBJECTS WHICH DISCLOSE THEIR FULL POWER, MEANING AND BEAUTY AS SOON
 AS THEY ARE PRESENTED TO THE MIND HAVE VERY LITTLE OF THOSE QUALITIES
 TO DISCLOSE.
                           -- CHARLES DUTTON (1882)
 Job cpu time:       0 days  4 hours 21 minutes 41.8 seconds.
 Elapsed time:       0 days  0 hours  2 minutes 28.3 seconds.
 File lengths (MBytes):  RWF=    378 Int=      0 D2E=      0 Chk=     30 Scr=      1
 Normal termination of Gaussian 16 at Wed Apr 10 16:55:21 2024.
