 Entering Gaussian System, Link 0=/ccc/products/gaussian-16-C.02/system/default/g16/g16
 Input=tbu_metriazole_chelpg.gjf
 Output=tbu_metriazole_chelpg.log
 Initial command:
 /ccc/products/gaussian-16-C.02/system/default/g16/l1.exe "/ccc/scratch/cont003/gen7343/penasfra/flp/b-n_flp/tbu_metriazole/Reactant/Gau-68523.inp" -scrdir="/ccc/scratch/cont003/gen7343/penasfra/flp/b-n_flp/tbu_metriazole/Reactant/"
 Entering Link 1 = /ccc/products/gaussian-16-C.02/system/default/g16/l1.exe PID=     68572.
  
 Copyright (c) 1988-2021, Gaussian, Inc.  All Rights Reserved.
  
 This is part of the Gaussian(R) 16 program.  It is based on
 the Gaussian(R) 09 system (copyright 2009, Gaussian, Inc.),
 the Gaussian(R) 03 system (copyright 2003, Gaussian, Inc.),
 the Gaussian(R) 98 system (copyright 1998, Gaussian, Inc.),
 the Gaussian(R) 94 system (copyright 1995, Gaussian, Inc.),
 the Gaussian 92(TM) system (copyright 1992, Gaussian, Inc.),
 the Gaussian 90(TM) system (copyright 1990, Gaussian, Inc.),
 the Gaussian 88(TM) system (copyright 1988, Gaussian, Inc.),
 the Gaussian 86(TM) system (copyright 1986, Carnegie Mellon
 University), and the Gaussian 82(TM) system (copyright 1983,
 Carnegie Mellon University). Gaussian is a federally registered
 trademark of Gaussian, Inc.
  
 This software contains proprietary and confidential information,
 including trade secrets, belonging to Gaussian, Inc.
  
 This software is provided under written license and may be
 used, copied, transmitted, or stored only in accord with that
 written license.
  
 The following legend is applicable only to US Government
 contracts under FAR:
  
                    RESTRICTED RIGHTS LEGEND
  
 Use, reproduction and disclosure by the US Government is
 subject to restrictions as set forth in subparagraphs (a)
 and (c) of the Commercial Computer Software - Restricted
 Rights clause in FAR 52.227-19.
  
 Gaussian, Inc.
 340 Quinnipiac St., Bldg. 40, Wallingford CT 06492
  
  
 ---------------------------------------------------------------
 Warning -- This program may not be used in any manner that
 competes with the business of Gaussian, Inc. or will provide
 assistance to any competitor of Gaussian, Inc.  The licensee
 of this program is prohibited from giving any competitor of
 Gaussian, Inc. access to this program.  By using this program,
 the user acknowledges that Gaussian, Inc. is engaged in the
 business of creating and licensing software in the field of
 computational chemistry and represents and warrants to the
 licensee that it is not a competitor of Gaussian, Inc. and that
 it will not use this program in any manner prohibited above.
 ---------------------------------------------------------------
  

 Cite this work as:
 Gaussian 16, Revision C.02,
 M. J. Frisch, G. W. Trucks, H. B. Schlegel, G. E. Scuseria, 
 M. A. Robb, J. R. Cheeseman, G. Scalmani, V. Barone, 
 G. A. Petersson, H. Nakatsuji, X. Li, M. Caricato, A. V. Marenich, 
 J. Bloino, B. G. Janesko, R. Gomperts, B. Mennucci, H. P. Hratchian, 
 J. V. Ortiz, A. F. Izmaylov, J. L. Sonnenberg, D. Williams-Young, 
 F. Ding, F. Lipparini, F. Egidi, J. Goings, B. Peng, A. Petrone, 
 T. Henderson, D. Ranasinghe, V. G. Zakrzewski, J. Gao, N. Rega, 
 G. Zheng, W. Liang, M. Hada, M. Ehara, K. Toyota, R. Fukuda, 
 J. Hasegawa, M. Ishida, T. Nakajima, Y. Honda, O. Kitao, H. Nakai, 
 T. Vreven, K. Throssell, J. A. Montgomery, Jr., J. E. Peralta, 
 F. Ogliaro, M. J. Bearpark, J. J. Heyd, E. N. Brothers, K. N. Kudin, 
 V. N. Staroverov, T. A. Keith, R. Kobayashi, J. Normand, 
 K. Raghavachari, A. P. Rendell, J. C. Burant, S. S. Iyengar, 
 J. Tomasi, M. Cossi, J. M. Millam, M. Klene, C. Adamo, R. Cammi, 
 J. W. Ochterski, R. L. Martin, K. Morokuma, O. Farkas, 
 J. B. Foresman, and D. J. Fox, Gaussian, Inc., Wallingford CT, 2019.
 
 ******************************************
 Gaussian 16:  AS64L-G16RevC.02  7-Dec-2021
                 9-Apr-2024 
 ******************************************
 %nprocshared=128
 Will use up to  128 processors via shared memory.
 %mem=30GB
 %chk=tbu_metriazole_chelpg.chk
 ----------------------------------------------------------------------
 # wb97xd/genecp scrf=(solvent=toluene,pcm) nosymm pop=(chelpg) scfcyc=
 300
 ----------------------------------------------------------------------
 1/38=1,172=1/1;
 2/12=2,15=1,17=6,18=5,40=1/2;
 3/5=7,11=2,16=1,17=8,25=1,30=1,70=2201,72=13,74=-58/1,2,3;
 4//1;
 5/5=2,7=300,38=5,53=13/2;
 6/7=2,8=2,9=2,10=2,15=8,20=3,28=1/1,2;
 99/5=1,9=1/99;
 ---------------------
 tbu_metriazole_chelpg
 ---------------------
 Symbolic Z-matrix:
 Charge =  0 Multiplicity = 1
 C                     3.1704    1.85758   0.99357 
 H                     3.23042   2.429     1.90395 
 C                     3.45441   0.53928   0.69432 
 N                     2.72355   2.40456  -0.15121 
 N                     2.74287   1.50067  -1.13799 
 N                     3.15956   0.38413  -0.64057 
 B                     3.91782  -0.63409   1.64019 
 C                     2.27518   3.76112  -0.39907 
 H                     3.08185   4.4666   -0.19798 
 H                     1.98859   3.82363  -1.44669 
 H                     1.41487   3.99213   0.22972 
 C                     5.14745  -0.37792   2.64662 
 C                     5.72502   1.04863   2.59113 
 C                     4.78689  -0.65823   4.12012 
 C                     6.28492  -1.33151   2.20777 
 H                     5.96857   1.35813   1.57162 
 H                     5.03635   1.78552   3.01387 
 H                     6.64456   1.09751   3.18586 
 H                     4.55009  -1.70409   4.30716 
 H                     5.63636  -0.39281   4.76078 
 H                     3.93256  -0.05543   4.44679 
 H                     7.16174  -1.17016   2.84587 
 H                     6.00831  -2.38382   2.28614 
 H                     6.59235  -1.14111   1.17407 
 C                     3.15674  -2.03539   1.43979 
 C                     3.77794  -2.67601   0.17045 
 C                     3.25068  -3.06051   2.58218 
 C                     1.65246  -1.80453   1.17565 
 H                     3.70381  -2.01531  -0.69519 
 H                     4.8293   -2.93787   0.32041 
 H                     3.23737  -3.6018   -0.06161 
 H                     2.7625   -2.6997    3.49196 
 H                     2.73817  -3.98257   2.28307 
 H                     4.2778   -3.33236   2.83296 
 H                     1.14714  -2.76904   1.04637 
 H                     1.17231  -1.29309   2.0175 
 H                     1.48113  -1.21246   0.27616 
 
                          Input orientation:                          
 ---------------------------------------------------------------------
 Center     Atomic      Atomic             Coordinates (Angstroms)
 Number     Number       Type             X           Y           Z
 ---------------------------------------------------------------------
      1          6           0        3.170399    1.857584    0.993571
      2          1           0        3.230423    2.429000    1.903952
      3          6           0        3.454412    0.539279    0.694318
      4          7           0        2.723553    2.404564   -0.151210
      5          7           0        2.742871    1.500667   -1.137994
      6          7           0        3.159556    0.384134   -0.640567
      7          5           0        3.917820   -0.634093    1.640188
      8          6           0        2.275176    3.761120   -0.399069
      9          1           0        3.081853    4.466602   -0.197984
     10          1           0        1.988589    3.823633   -1.446691
     11          1           0        1.414866    3.992128    0.229720
     12          6           0        5.147446   -0.377918    2.646620
     13          6           0        5.725024    1.048634    2.591127
     14          6           0        4.786892   -0.658227    4.120116
     15          6           0        6.284917   -1.331513    2.207774
     16          1           0        5.968568    1.358131    1.571624
     17          1           0        5.036351    1.785516    3.013873
     18          1           0        6.644561    1.097508    3.185864
     19          1           0        4.550092   -1.704093    4.307160
     20          1           0        5.636357   -0.392808    4.760778
     21          1           0        3.932555   -0.055431    4.446793
     22          1           0        7.161744   -1.170164    2.845870
     23          1           0        6.008309   -2.383824    2.286144
     24          1           0        6.592351   -1.141110    1.174071
     25          6           0        3.156736   -2.035393    1.439785
     26          6           0        3.777935   -2.676005    0.170447
     27          6           0        3.250677   -3.060507    2.582184
     28          6           0        1.652455   -1.804527    1.175645
     29          1           0        3.703809   -2.015306   -0.695193
     30          1           0        4.829300   -2.937871    0.320406
     31          1           0        3.237365   -3.601798   -0.061611
     32          1           0        2.762497   -2.699703    3.491958
     33          1           0        2.738168   -3.982570    2.283065
     34          1           0        4.277800   -3.332358    2.832964
     35          1           0        1.147138   -2.769037    1.046373
     36          1           0        1.172315   -1.293086    2.017500
     37          1           0        1.481131   -1.212459    0.276164
 ---------------------------------------------------------------------
                    Distance matrix (angstroms):
                    1          2          3          4          5
     1  C    0.000000
     2  H    1.076528   0.000000
     3  C    1.381356   2.254868   0.000000
     4  N    1.345133   2.116886   2.174479   0.000000
     5  N    2.203120   3.217599   2.188133   1.338337   0.000000
     6  N    2.200359   3.265130   1.375837   2.124078   1.291397
     7  B    2.680523   3.150337   1.576775   3.724086   3.695403
     8  C    2.522760   2.826826   3.600882   1.450076   2.423715
     9  H    2.869603   2.931216   4.044610   2.093458   3.129744
    10  H    3.349164   3.835878   4.185635   2.057231   2.461789
    11  H    2.867341   2.922784   4.037049   2.092398   3.137135
    12  C    3.411562   3.479270   2.742097   4.630909   4.861519
    13  C    3.119727   2.932687   3.002167   4.285766   4.796240
    14  C    4.326389   4.106696   3.865956   5.646440   6.040411
    15  C    4.620049   4.854246   3.715127   5.675067   5.635734
    16  H    2.900577   2.958824   2.785887   3.820118   4.215147
    17  H    2.751107   2.215259   3.071803   3.968628   4.751756
    18  H    4.177758   3.882333   4.086132   5.312133   5.837934
    19  H    5.056577   4.959777   4.391567   6.332012   6.571624
    20  H    5.033593   4.681087   4.708053   6.359036   6.837618
    21  H    4.020603   3.623731   3.829278   5.353027   5.918330
    22  H    5.341264   5.412622   4.614724   6.438844   6.521576
    23  H    5.264411   5.570098   4.195334   6.297537   6.121852
    24  H    4.553515   4.957920   3.591731   5.412557   5.209907
    25  C    3.918490   4.489063   2.696900   4.736257   4.395446
    26  C    4.647587   5.419030   3.273707   5.198785   4.497551
    27  C    5.168922   5.531283   4.069890   6.133213   5.907783
    28  C    3.968421   4.576370   2.995355   4.541392   4.179263
    29  H    4.258606   5.170252   2.918706   4.559832   3.671722
    30  H    5.118739   5.819564   3.757752   5.761788   5.116711
    31  H    5.560822   6.343029   4.215099   6.028965   5.238156
    32  H    5.213174   5.389278   4.335498   6.271183   6.251396
    33  H    5.996417   6.441605   4.846054   6.835305   6.462937
    34  H    5.616512   5.929023   4.499039   6.650808   6.440702
    35  H    5.049950   5.665254   4.048754   5.539444   5.054522
    36  H    3.868784   4.254718   3.211906   4.558756   4.497649
    37  H    3.576795   4.355449   2.671568   3.848261   3.309514
                    6          7          8          9         10
     6  N    0.000000
     7  B    2.610286   0.000000
     8  C    3.499212   5.116126   0.000000
     9  H    4.107123   5.485873   1.090352   0.000000
    10  H    3.721714   5.755178   1.087912   1.779861   0.000000
    11  H    4.101093   5.445743   1.090355   1.785190   1.779860
    12  C    3.916379   1.609506   5.887087   5.985635   6.662327
    13  C    4.179358   2.646099   5.310396   5.142762   6.161618
    14  C    5.137980   2.627910   6.801645   6.914985   7.675084
    15  C    4.563373   2.532133   6.986313   7.047370   7.641275
    16  H    3.705807   2.859934   4.826917   4.596436   5.570382
    17  H    4.340641   2.998771   4.814070   4.617825   5.774029
    18  H    5.224532   3.580876   6.248048   5.957693   7.111287
    19  H    5.547458   2.942347   7.562565   7.780072   8.379967
    20  H    5.992721   3.570668   7.428100   7.397883   8.343696
    21  H    5.164492   2.865676   6.387123   6.538075   7.318422
    22  H    5.530696   3.502011   7.663272   7.594978   8.374104
    23  H    4.933824   2.801600   7.675089   7.852603   8.284004
    24  H    4.171734   2.761783   6.718975   6.756668   7.260282
    25  C    3.190922   1.607188   6.144762   6.705508   6.635096
    26  C    3.225614   2.519744   6.634698   7.185896   6.932690
    27  C    4.718048   2.686991   7.508267   8.025908   8.075648
    28  C    3.218729   2.591832   5.817554   6.577013   6.218184
    29  H    2.460997   2.721682   5.957833   6.530634   6.131879
    30  H    3.840212   2.807136   7.205392   7.625518   7.543885
    31  H    4.028511   3.488038   7.433186   8.071051   7.656038
    32  H    5.171602   3.005090   7.557765   8.066820   8.218461
    33  H    5.271935   3.607931   8.208102   8.812618   8.683879
    34  H    5.208474   2.972025   8.048228   8.452261   8.646626
    35  H    4.103423   3.547856   6.782678   7.592497   7.098359
    36  H    3.718537   2.848585   5.709738   6.459776   6.232795
    37  H    2.491308   2.851758   5.081627   5.919363   5.346772
                   11         12         13         14         15
    11  H    0.000000
    12  C    6.234650   0.000000
    13  C    5.728688   1.540041   0.000000
    14  C    6.937690   1.542648   2.476141   0.000000
    15  C    7.481393   1.547827   2.474983   2.520802   0.000000
    16  H    5.429074   2.200846   1.092927   3.457871   2.781897
    17  H    5.073046   2.197194   1.093609   2.694046   3.453199
    18  H    6.668382   2.170027   1.096198   2.721464   2.643132
    19  H    7.674770   2.207479   3.450035   1.088529   2.748792
    20  H    7.588092   2.170005   2.606339   1.096579   2.796360
    21  H    6.364369   2.195582   2.806314   1.095433   3.489298
    22  H    8.155986   2.173649   2.655583   2.743302   1.096369
    23  H    8.122891   2.212394   3.457605   2.798749   1.090877
    24  H    7.351754   2.199685   2.748687   3.488845   1.095131
    25  C    6.389787   2.857726   4.175274   3.426101   3.297085
    26  C    7.074716   3.645298   4.850132   4.548550   3.499045
    27  C    7.657934   3.286057   4.796615   3.239775   3.512295
    28  C    5.878132   4.051412   5.170100   4.450686   4.769564
    29  H    6.494920   3.991596   4.926757   5.118782   3.944225
    30  H    7.726025   3.473593   4.674475   4.431295   2.874259
    31  H    7.814991   4.623454   5.903557   5.343453   4.426271
    32  H    7.565640   3.434132   4.861902   2.942853   3.991054
    33  H    8.340453   4.350897   5.859115   4.315470   4.428679
    34  H    8.283801   3.085405   4.620177   3.011131   2.902199
    35  H    6.815567   4.927545   6.157753   5.210684   5.460046
    36  H    5.584664   4.127347   5.151685   4.229563   5.116286
    37  H    5.205216   4.444928   5.336874   5.100117   5.178962
                   16         17         18         19         20
    16  H    0.000000
    17  H    1.769680   0.000000
    18  H    1.769368   1.757633   0.000000
    19  H    4.344243   3.753187   3.673292   0.000000
    20  H    3.653335   2.856008   2.391207   1.762160   0.000000
    21  H    3.796064   2.580835   3.205337   1.766051   1.765036
    22  H    3.072401   3.644388   2.350619   3.039930   2.568650
    23  H    3.809770   4.342544   3.651573   2.583203   3.197860
    24  H    2.606407   3.790930   3.010224   3.782065   3.786601
    25  C    4.409057   4.539829   5.002878   3.205158   4.458206
    26  C    4.799627   5.438185   5.616911   4.318939   5.453243
    27  C    5.285123   5.182560   5.401108   2.550271   4.189792
    28  C    5.365448   5.264812   6.114238   4.267643   5.542346
    29  H    4.652706   5.475316   5.779294   5.082970   6.011228
    30  H    4.617262   5.441325   5.271651   4.182627   5.181273
    31  H    5.893032   6.458955   6.651207   4.940718   6.269626
    32  H    5.516574   5.051353   5.439019   2.202564   3.897530
    33  H    6.282095   6.251923   6.471642   3.545629   5.236884
    34  H    5.142992   5.176945   5.034859   2.213288   3.768700
    35  H    6.368327   6.304045   7.053315   4.831866   6.292564
    36  H    5.498345   5.039973   6.084857   4.101323   5.316366
    37  H    5.331345   5.396526   6.361078   5.090104   6.168427
                   21         22         23         24         25
    21  H    0.000000
    22  H    3.772697   0.000000
    23  H    3.794545   1.765411   0.000000
    24  H    4.354759   1.766342   1.766961   0.000000
    25  C    3.682966   4.331949   2.994862   3.560028   0.000000
    26  C    5.017813   4.568983   3.088060   3.359182   1.551609
    27  C    3.601695   4.351939   2.854833   4.102883   1.537777
    28  C    4.354148   5.791747   4.532357   4.984245   1.544646
    29  H    5.507582   5.021026   3.786145   3.549935   2.204047
    30  H    5.112698   3.865624   2.358210   2.658090   2.205662
    31  H    5.778037   5.455918   3.830606   4.340257   2.171247
    32  H    3.045147   4.702158   3.476933   4.740210   2.192749
    33  H    4.640119   5.272040   3.640030   4.915129   2.162827
    34  H    3.669045   3.604495   2.047777   3.593138   2.209038
    35  H    5.165759   6.478431   5.031541   5.684787   2.175199
    36  H    3.879714   6.047691   4.964747   5.487373   2.196065
    37  H    4.974167   6.234945   5.089937   5.189980   2.199747
                   26         27         28         29         30
    26  C    0.000000
    27  C    2.498463   0.000000
    28  C    2.507501   2.471872   0.000000
    29  H    1.091490   3.469722   2.784334   0.000000
    30  H    1.093814   2.760929   3.479691   1.774626   0.000000
    31  H    1.096886   2.698671   2.696836   1.770862   1.766633
    32  H    3.473343   1.093704   2.720081   4.345883   3.793038
    33  H    2.692839   1.096512   2.673766   3.697649   3.052255
    34  H    2.787411   1.091685   3.460262   3.809460   2.602445
    35  H    2.774346   2.620791   1.096511   3.183980   3.756840
    36  H    3.480420   2.786079   1.095822   3.780049   4.354192
    37  H    2.725519   3.444460   1.090396   2.555072   3.766861
                   31         32         33         34         35
    31  H    0.000000
    32  H    3.696908   0.000000
    33  H    2.427280   1.762885   0.000000
    34  H    3.087664   1.769370   1.759441   0.000000
    35  H    2.508021   2.931736   2.352328   3.648326   0.000000
    36  H    3.730588   2.584817   3.123419   3.803636   1.766961
    37  H    2.984525   3.767642   3.644353   4.341953   1.768533
                   36         37
    36  H    0.000000
    37  H    1.770344   0.000000
 Symmetry turned off by external request.
 Stoichiometry    C11H22BN3
 Framework group  C1[X(C11H22BN3)]
 Deg. of freedom   105
 Full point group                 C1      NOp   1
 Rotational constants (GHZ):           0.8389773           0.4339887           0.3409504
 General basis read from cards:  (5D, 7F)
 ======================================================================================================
                                       Pseudopotential Parameters
 ======================================================================================================
  Center     Atomic      Valence      Angular      Power
  Number     Number     Electrons     Momentum     of R      Exponent        Coefficient   SO-Coeffient
 ======================================================================================================
    1          6
                                   No pseudopotential on this center.
    2          1
                                   No pseudopotential on this center.
    3          6
                                   No pseudopotential on this center.
    4          7
                                   No pseudopotential on this center.
    5          7
                                   No pseudopotential on this center.
    6          7
                                   No pseudopotential on this center.
    7          5
                                   No pseudopotential on this center.
    8          6
                                   No pseudopotential on this center.
    9          1
                                   No pseudopotential on this center.
   10          1
                                   No pseudopotential on this center.
   11          1
                                   No pseudopotential on this center.
   12          6
                                   No pseudopotential on this center.
   13          6
                                   No pseudopotential on this center.
   14          6
                                   No pseudopotential on this center.
   15          6
                                   No pseudopotential on this center.
   16          1
                                   No pseudopotential on this center.
   17          1
                                   No pseudopotential on this center.
   18          1
                                   No pseudopotential on this center.
   19          1
                                   No pseudopotential on this center.
   20          1
                                   No pseudopotential on this center.
   21          1
                                   No pseudopotential on this center.
   22          1
                                   No pseudopotential on this center.
   23          1
                                   No pseudopotential on this center.
   24          1
                                   No pseudopotential on this center.
   25          6
                                   No pseudopotential on this center.
   26          6
                                   No pseudopotential on this center.
   27          6
                                   No pseudopotential on this center.
   28          6
                                   No pseudopotential on this center.
   29          1
                                   No pseudopotential on this center.
   30          1
                                   No pseudopotential on this center.
   31          1
                                   No pseudopotential on this center.
   32          1
                                   No pseudopotential on this center.
   33          1
                                   No pseudopotential on this center.
   34          1
                                   No pseudopotential on this center.
   35          1
                                   No pseudopotential on this center.
   36          1
                                   No pseudopotential on this center.
   37          1
                                   No pseudopotential on this center.
 ======================================================================================================
   484 basis functions,   738 primitive gaussians,   499 cartesian basis functions
    57 alpha electrons       57 beta electrons
       nuclear repulsion energy      1050.2535831417 Hartrees.
 NAtoms=   37 NActive=   37 NUniq=   37 SFac= 1.00D+00 NAtFMM=   60 NAOKFM=F Big=F
 Integral buffers will be    131072 words long.
 Raffenetti 2 integral format.
 Two-electron integral symmetry is turned off.
 Nuclear repulsion after empirical dispersion term =     1050.2196358055 Hartrees.
 ------------------------------------------------------------------------------
 Polarizable Continuum Model (PCM)
 =================================
 Model                : PCM.
 Atomic radii         : UFF (Universal Force Field).
 Polarization charges : Total charges.
 Charge compensation  : None.
 Solution method      : On-the-fly selection.
 Cavity type          : Scaled VdW (van der Waals Surface) (Alpha=1.100).
 Cavity algorithm     : GePol (No added spheres)
                        Default sphere list used, NSphG=   37.
                        Lebedev-Laikov grids with approx.  5.0 points / Ang**2.
                        Smoothing algorithm: York/Karplus (Gamma=1.0000).
                        Polarization charges: spherical gaussians, with
                                              point-specific exponents (IZeta= 3).
                        Self-potential: point-specific (ISelfS= 7).
                        Self-field    : sphere-specific E.n sum rule (ISelfD= 2).
 Solvent              : Toluene, Eps=   2.374100 Eps(inf)=   2.238315
 ------------------------------------------------------------------------------
 One-electron integrals computed using PRISM.
   1 Symmetry operations used in ECPInt.
 ECPInt:  NShTT=   20100 NPrTT=   61411 LenC2=   19055 LenP2D=   43109.
 LDataN:  DoStor=T MaxTD1= 4 Len=   56
 Number of processors reduced to  88 by ecpmxn.
 NBasis=   484 RedAO= T EigKep=  2.13D-06  NBF=   484
 NBsUse=   484 1.00D-06 EigRej= -1.00D+00 NBFU=   484
 ExpMin= 3.15D-02 ExpMax= 6.29D+03 ExpMxC= 9.49D+02 IAcc=3 IRadAn=         5 AccDes= 0.00D+00
 Harris functional with IExCor= 4639 and IRadAn=       5 diagonalized for initial guess.
 HarFok:  IExCor= 4639 AccDes= 0.00D+00 IRadAn=         5 IDoV= 1 UseB2=F ITyADJ=14
 ICtDFT=  3500011 ScaDFX=  1.000000  1.000000  1.000000  1.000000
 FoFCou: FMM=F IPFlag=           0 FMFlag=      100000 FMFlg1=           0
         NFxFlg=           0 DoJE=T BraDBF=F KetDBF=T FulRan=T
         wScrn=  0.000000 ICntrl=       500 IOpCl=  0 I1Cent=   200000004 NGrid=           0
         NMat0=    1 NMatS0=      1 NMatT0=    0 NMatD0=    1 NMtDS0=    0 NMtDT0=    0
 Symmetry not used in FoFCou.
 Requested convergence on RMS density matrix=1.00D-08 within 300 cycles.
 Requested convergence on MAX density matrix=1.00D-06.
 Requested convergence on             energy=1.00D-06.
 No special actions if energy rises.
 Inv3:  Mode=1 IEnd=    16258752.
 Iteration    1 A*A^-1 deviation from unit magnitude is 2.66D-15 for   2317.
 Iteration    1 A*A^-1 deviation from orthogonality  is 1.74D-15 for   1110    735.
 Iteration    1 A^-1*A deviation from unit magnitude is 2.66D-15 for   1652.
 Iteration    1 A^-1*A deviation from orthogonality  is 4.91D-15 for   2207   2175.
 Error on total polarization charges =  0.01127
 SCF Done:  E(RwB97XD) =  -621.478032777     A.U. after   15 cycles
            NFock= 15  Conv=0.78D-08     -V/T= 2.0046

 **********************************************************************

            Population analysis using the SCF Density.

 **********************************************************************

 Alpha  occ. eigenvalues --  -14.53079 -14.49224 -14.45404 -10.33692 -10.33144
 Alpha  occ. eigenvalues --  -10.29317 -10.27827 -10.27223 -10.27133 -10.26890
 Alpha  occ. eigenvalues --  -10.26617 -10.26232 -10.26110 -10.25898  -6.85216
 Alpha  occ. eigenvalues --   -1.21308  -1.02516  -0.91702  -0.90158  -0.89241
 Alpha  occ. eigenvalues --   -0.84163  -0.78347  -0.78035  -0.77055  -0.76888
 Alpha  occ. eigenvalues --   -0.73191  -0.68964  -0.66871  -0.63341  -0.62685
 Alpha  occ. eigenvalues --   -0.59340  -0.57150  -0.54747  -0.53800  -0.53212
 Alpha  occ. eigenvalues --   -0.52213  -0.51721  -0.51373  -0.50801  -0.50633
 Alpha  occ. eigenvalues --   -0.48587  -0.47200  -0.46407  -0.45883  -0.45333
 Alpha  occ. eigenvalues --   -0.44547  -0.43809  -0.43098  -0.41900  -0.41086
 Alpha  occ. eigenvalues --   -0.39965  -0.39569  -0.37556  -0.36927  -0.36030
 Alpha  occ. eigenvalues --   -0.35343  -0.33183
 Alpha virt. eigenvalues --    0.02638   0.03644   0.04562   0.04827   0.05425
 Alpha virt. eigenvalues --    0.06127   0.06420   0.06968   0.07398   0.07527
 Alpha virt. eigenvalues --    0.07567   0.08563   0.08770   0.08958   0.09439
 Alpha virt. eigenvalues --    0.09753   0.09953   0.10632   0.11100   0.11441
 Alpha virt. eigenvalues --    0.11884   0.12314   0.12802   0.13322   0.13683
 Alpha virt. eigenvalues --    0.13919   0.14272   0.15032   0.15546   0.15735
 Alpha virt. eigenvalues --    0.16058   0.16258   0.16549   0.16568   0.17572
 Alpha virt. eigenvalues --    0.17743   0.18321   0.18445   0.18675   0.18980
 Alpha virt. eigenvalues --    0.19511   0.19534   0.19750   0.19857   0.20480
 Alpha virt. eigenvalues --    0.20661   0.20948   0.21148   0.21223   0.21604
 Alpha virt. eigenvalues --    0.21799   0.22271   0.22332   0.22490   0.23059
 Alpha virt. eigenvalues --    0.23338   0.23716   0.23906   0.24293   0.24750
 Alpha virt. eigenvalues --    0.24996   0.25335   0.25508   0.25934   0.26167
 Alpha virt. eigenvalues --    0.26187   0.27139   0.27444   0.27891   0.28028
 Alpha virt. eigenvalues --    0.28591   0.29021   0.29390   0.29767   0.29882
 Alpha virt. eigenvalues --    0.30328   0.30464   0.30930   0.31329   0.31536
 Alpha virt. eigenvalues --    0.31741   0.32043   0.32721   0.33178   0.33699
 Alpha virt. eigenvalues --    0.34023   0.34267   0.34487   0.34976   0.35494
 Alpha virt. eigenvalues --    0.35687   0.36255   0.36671   0.37479   0.37666
 Alpha virt. eigenvalues --    0.37836   0.38665   0.39189   0.39651   0.40038
 Alpha virt. eigenvalues --    0.40545   0.40786   0.40990   0.41859   0.42339
 Alpha virt. eigenvalues --    0.42904   0.43288   0.43845   0.44806   0.45113
 Alpha virt. eigenvalues --    0.45753   0.46377   0.46656   0.47595   0.48279
 Alpha virt. eigenvalues --    0.49963   0.51756   0.52438   0.53329   0.53796
 Alpha virt. eigenvalues --    0.54069   0.55280   0.56297   0.56846   0.57453
 Alpha virt. eigenvalues --    0.58425   0.59247   0.59698   0.60532   0.62114
 Alpha virt. eigenvalues --    0.62657   0.62958   0.64186   0.64923   0.65765
 Alpha virt. eigenvalues --    0.65956   0.66919   0.68817   0.69050   0.69356
 Alpha virt. eigenvalues --    0.69783   0.70263   0.70706   0.71531   0.72497
 Alpha virt. eigenvalues --    0.73019   0.73777   0.74726   0.75067   0.75465
 Alpha virt. eigenvalues --    0.76349   0.76858   0.76961   0.77262   0.77643
 Alpha virt. eigenvalues --    0.78218   0.79038   0.79206   0.79356   0.80973
 Alpha virt. eigenvalues --    0.81061   0.81909   0.82472   0.82567   0.83503
 Alpha virt. eigenvalues --    0.83963   0.85040   0.85425   0.86150   0.87456
 Alpha virt. eigenvalues --    0.87823   0.88841   0.89276   0.89820   0.91150
 Alpha virt. eigenvalues --    0.91681   0.92242   0.92437   0.93367   0.93907
 Alpha virt. eigenvalues --    0.96025   0.96554   0.97969   0.98254   0.99550
 Alpha virt. eigenvalues --    1.00632   1.01169   1.02896   1.04911   1.06021
 Alpha virt. eigenvalues --    1.06317   1.09078   1.10248   1.12671   1.13231
 Alpha virt. eigenvalues --    1.14519   1.15224   1.16138   1.19211   1.20046
 Alpha virt. eigenvalues --    1.20326   1.22619   1.23088   1.25073   1.26286
 Alpha virt. eigenvalues --    1.26978   1.30229   1.31628   1.33169   1.35348
 Alpha virt. eigenvalues --    1.36991   1.37909   1.39489   1.41798   1.43580
 Alpha virt. eigenvalues --    1.45176   1.46376   1.48467   1.50340   1.51230
 Alpha virt. eigenvalues --    1.52113   1.53507   1.55193   1.55291   1.56617
 Alpha virt. eigenvalues --    1.57045   1.58227   1.58693   1.60923   1.61468
 Alpha virt. eigenvalues --    1.62994   1.63044   1.63460   1.64254   1.64809
 Alpha virt. eigenvalues --    1.65168   1.66461   1.66472   1.66995   1.68100
 Alpha virt. eigenvalues --    1.69306   1.70475   1.70732   1.71183   1.71770
 Alpha virt. eigenvalues --    1.73047   1.73412   1.75269   1.77128   1.77695
 Alpha virt. eigenvalues --    1.78447   1.78759   1.79196   1.79761   1.80846
 Alpha virt. eigenvalues --    1.82158   1.82534   1.83360   1.84337   1.85478
 Alpha virt. eigenvalues --    1.85987   1.86752   1.87058   1.87822   1.88464
 Alpha virt. eigenvalues --    1.89552   1.90598   1.90972   1.92226   1.93666
 Alpha virt. eigenvalues --    1.94712   1.96022   1.96695   1.97706   2.01412
 Alpha virt. eigenvalues --    2.04059   2.06139   2.07507   2.08156   2.09207
 Alpha virt. eigenvalues --    2.10204   2.12130   2.13913   2.14649   2.16237
 Alpha virt. eigenvalues --    2.17603   2.18706   2.20180   2.20714   2.21764
 Alpha virt. eigenvalues --    2.22485   2.23687   2.24442   2.26030   2.26841
 Alpha virt. eigenvalues --    2.27716   2.31723   2.32533   2.33684   2.35594
 Alpha virt. eigenvalues --    2.36709   2.38827   2.39702   2.41318   2.43786
 Alpha virt. eigenvalues --    2.44928   2.45790   2.49415   2.50554   2.52172
 Alpha virt. eigenvalues --    2.53419   2.54088   2.55297   2.56232   2.56744
 Alpha virt. eigenvalues --    2.58408   2.59720   2.61260   2.61943   2.62548
 Alpha virt. eigenvalues --    2.63099   2.64284   2.64552   2.64747   2.65018
 Alpha virt. eigenvalues --    2.65749   2.66520   2.67062   2.67494   2.68259
 Alpha virt. eigenvalues --    2.68982   2.69636   2.70947   2.71347   2.72821
 Alpha virt. eigenvalues --    2.72987   2.75287   2.76170   2.76679   2.78680
 Alpha virt. eigenvalues --    2.78745   2.80845   2.83607   2.84374   2.84796
 Alpha virt. eigenvalues --    2.85842   2.87353   2.87621   2.88205   2.89753
 Alpha virt. eigenvalues --    2.91041   2.91488   2.92917   2.93611   2.95063
 Alpha virt. eigenvalues --    2.96828   2.99516   3.01086   3.04519   3.05998
 Alpha virt. eigenvalues --    3.07002   3.09521   3.12891   3.15447   3.16107
 Alpha virt. eigenvalues --    3.18356   3.20593   3.21484   3.22193   3.24064
 Alpha virt. eigenvalues --    3.26624   3.32073   3.34073   3.37741   3.39865
 Alpha virt. eigenvalues --    3.44489   3.52124   3.54762   3.62590   3.69226
 Alpha virt. eigenvalues --    3.74435   3.80913   3.82279   3.87642   3.88181
 Alpha virt. eigenvalues --    3.88615   3.90133   3.90694   3.90797   3.91541
 Alpha virt. eigenvalues --    3.92689   3.93370   3.93589   3.94086   3.94706
 Alpha virt. eigenvalues --    3.96142   3.96250   4.03511   4.06769   4.14560
 Alpha virt. eigenvalues --    4.15654   4.18693   4.21811   4.32854   4.38337
 Alpha virt. eigenvalues --    4.39392   4.39789   4.42420   4.75405   4.95029
 Alpha virt. eigenvalues --    5.12397   5.77325  14.81098  23.91070  23.98443
 Alpha virt. eigenvalues --   24.00008  24.06238  24.11981  24.12009  24.13215
 Alpha virt. eigenvalues --   24.13826  24.15378  24.16788  24.26984  35.58215
 Alpha virt. eigenvalues --   35.66012  35.79516
          Condensed to atoms (all electrons):
               1          2          3          4          5          6
     1  C   10.869316   0.324142  -3.606411   0.202079  -1.003176   0.650329
     2  H    0.324142   0.475968   0.076595  -0.110378   0.087885  -0.052562
     3  C   -3.606411   0.076595  11.073379  -0.582381   1.538167  -0.969825
     4  N    0.202079  -0.110378  -0.582381   7.198184  -0.496380   0.385766
     5  N   -1.003176   0.087885   1.538167  -0.496380   8.247253  -1.286615
     6  N    0.650329  -0.052562  -0.969825   0.385766  -1.286615   8.216147
     7  B   -1.017005   0.043365  -0.460628   0.137462  -0.314717   0.299777
     8  C   -0.063918  -0.005577  -0.052912   0.027720   0.084518  -0.084301
     9  H    0.015949  -0.002361  -0.018521  -0.030942  -0.020557   0.000613
    10  H    0.002827   0.002218   0.004830  -0.110933   0.062314   0.006895
    11  H   -0.000138  -0.016726   0.016738  -0.017957  -0.036925   0.006803
    12  C   -0.111425   0.035319  -0.318373  -0.060611   0.121826  -0.071646
    13  C   -0.369520  -0.030435   0.206402   0.054486  -0.081884   0.100147
    14  C    0.180374  -0.015394  -0.227660   0.023166  -0.039557   0.051016
    15  C    0.243752  -0.041266   0.038094   0.038125  -0.089938   0.079132
    16  H    0.100833  -0.009688  -0.093783   0.021191  -0.039589   0.034245
    17  H    0.050207  -0.026053  -0.078064   0.015347  -0.019480   0.015689
    18  H   -0.034152   0.000832   0.021494  -0.000235   0.000039   0.000619
    19  H   -0.006709   0.000510  -0.005977   0.000356  -0.000317   0.000220
    20  H    0.005990  -0.002263   0.000192   0.000672  -0.001185   0.001534
    21  H   -0.017899  -0.011670   0.004880   0.005872  -0.005684   0.008075
    22  H    0.009889  -0.001766   0.000707   0.000880  -0.001561   0.001393
    23  H    0.010027  -0.000937  -0.034149   0.001591  -0.004793   0.005320
    24  H    0.032119  -0.002018   0.009410   0.002300  -0.009843   0.011046
    25  C    0.050789  -0.022445  -0.917041   0.039199  -0.257713   0.318151
    26  C    0.142917   0.006620   0.639763  -0.017569   0.070881  -0.168423
    27  C    0.025202  -0.014015  -0.184116   0.011406  -0.047985   0.050772
    28  C   -0.077558   0.031514   0.356641  -0.066892   0.281793  -0.308762
    29  H    0.019556   0.002489   0.046701  -0.013989   0.014547  -0.003095
    30  H   -0.010408  -0.000996  -0.013718   0.003747  -0.005580   0.005690
    31  H    0.003940   0.000169   0.022432  -0.000871   0.000204  -0.005138
    32  H    0.021331  -0.001295   0.004535   0.001618  -0.002792   0.000490
    33  H   -0.005238   0.000170   0.018027   0.000001  -0.000150   0.001988
    34  H   -0.005070  -0.001403  -0.006545   0.000579  -0.001445   0.001541
    35  H    0.004149   0.000012  -0.013329  -0.000495   0.003496  -0.010080
    36  H    0.017939   0.007227   0.073806  -0.011051   0.026993  -0.028745
    37  H    0.051468   0.006098   0.055893  -0.006773   0.032163  -0.020742
               7          8          9         10         11         12
     1  C   -1.017005  -0.063918   0.015949   0.002827  -0.000138  -0.111425
     2  H    0.043365  -0.005577  -0.002361   0.002218  -0.016726   0.035319
     3  C   -0.460628  -0.052912  -0.018521   0.004830   0.016738  -0.318373
     4  N    0.137462   0.027720  -0.030942  -0.110933  -0.017957  -0.060611
     5  N   -0.314717   0.084518  -0.020557   0.062314  -0.036925   0.121826
     6  N    0.299777  -0.084301   0.000613   0.006895   0.006803  -0.071646
     7  B   11.054586  -0.016424   0.001070   0.000494  -0.000051   1.874763
     8  C   -0.016424   5.251308   0.405753   0.409037   0.397739   0.000797
     9  H    0.001070   0.405753   0.519020  -0.019428  -0.051292  -0.004611
    10  H    0.000494   0.409037  -0.019428   0.448495  -0.020789  -0.000735
    11  H   -0.000051   0.397739  -0.051292  -0.020789   0.521556   0.002007
    12  C    1.874763   0.000797  -0.004611  -0.000735   0.002007   6.890094
    13  C   -0.548108  -0.005770   0.005078   0.000056  -0.002095  -0.123125
    14  C   -1.633282   0.001072   0.000048   0.000137  -0.000022  -0.584506
    15  C   -2.473181   0.001089   0.000073   0.000337   0.000307  -1.074424
    16  H   -0.163278  -0.001021  -0.000512  -0.000147   0.000614  -0.095601
    17  H   -0.115796   0.002371  -0.000672  -0.000041   0.002006   0.018602
    18  H    0.134433  -0.001052   0.000311  -0.000009  -0.000225  -0.017273
    19  H    0.069537   0.000009   0.000009   0.000003  -0.000014   0.052916
    20  H   -0.039708   0.000085   0.000002   0.000011   0.000019  -0.067158
    21  H   -0.153691   0.000217   0.000193  -0.000037   0.000154  -0.057434
    22  H   -0.026434   0.000184  -0.000045   0.000011   0.000026  -0.041197
    23  H   -0.046457   0.000244   0.000017   0.000033  -0.000006   0.031167
    24  H   -0.310406   0.000066   0.000030   0.000037   0.000003  -0.104405
    25  C    1.059176   0.002687  -0.000181   0.000478   0.001385  -0.203341
    26  C   -1.605588  -0.004744  -0.000246   0.000397  -0.000520  -0.067242
    27  C   -0.364085  -0.000041  -0.000063   0.000189   0.000286  -0.053861
    28  C   -0.381663   0.006086   0.000131  -0.000351  -0.002070   0.046568
    29  H   -0.045327   0.000301  -0.000089   0.000084  -0.000171   0.034505
    30  H    0.019334  -0.000192   0.000018  -0.000013   0.000020  -0.066460
    31  H   -0.000603  -0.000034  -0.000014   0.000032   0.000002   0.011194
    32  H   -0.228596   0.000051  -0.000015   0.000028  -0.000011  -0.102628
    33  H    0.051504  -0.000069   0.000003  -0.000002  -0.000009  -0.003854
    34  H   -0.020052   0.000045  -0.000008   0.000004   0.000033   0.093212
    35  H    0.069461   0.000293   0.000009  -0.000037  -0.000018   0.009264
    36  H   -0.175239   0.000010  -0.000131   0.000017  -0.000257   0.013079
    37  H   -0.144086  -0.000248   0.000465   0.000069  -0.001319  -0.012118
              13         14         15         16         17         18
     1  C   -0.369520   0.180374   0.243752   0.100833   0.050207  -0.034152
     2  H   -0.030435  -0.015394  -0.041266  -0.009688  -0.026053   0.000832
     3  C    0.206402  -0.227660   0.038094  -0.093783  -0.078064   0.021494
     4  N    0.054486   0.023166   0.038125   0.021191   0.015347  -0.000235
     5  N   -0.081884  -0.039557  -0.089938  -0.039589  -0.019480   0.000039
     6  N    0.100147   0.051016   0.079132   0.034245   0.015689   0.000619
     7  B   -0.548108  -1.633282  -2.473181  -0.163278  -0.115796   0.134433
     8  C   -0.005770   0.001072   0.001089  -0.001021   0.002371  -0.001052
     9  H    0.005078   0.000048   0.000073  -0.000512  -0.000672   0.000311
    10  H    0.000056   0.000137   0.000337  -0.000147  -0.000041  -0.000009
    11  H   -0.002095  -0.000022   0.000307   0.000614   0.002006  -0.000225
    12  C   -0.123125  -0.584506  -1.074424  -0.095601   0.018602  -0.017273
    13  C    6.432652  -0.195781  -0.019655   0.432245   0.300725   0.413384
    14  C   -0.195781   6.657059   0.655905   0.079068   0.027243  -0.073367
    15  C   -0.019655   0.655905   7.602559   0.041719   0.099744  -0.086633
    16  H    0.432245   0.079068   0.041719   0.576636  -0.038215  -0.039814
    17  H    0.300725   0.027243   0.099744  -0.038215   0.655456  -0.043548
    18  H    0.413384  -0.073367  -0.086633  -0.039814  -0.043548   0.563344
    19  H    0.012732   0.313646  -0.057104  -0.004684  -0.002129   0.003885
    20  H   -0.037294   0.454750   0.016440   0.002494   0.008030  -0.000421
    21  H    0.020752   0.448848   0.078153   0.005012   0.012165  -0.002820
    22  H   -0.047031  -0.029840   0.473185   0.001996   0.008089  -0.000631
    23  H    0.031245   0.047796   0.283438   0.004098  -0.008149   0.006034
    24  H    0.016351   0.058276   0.590095   0.012496   0.004447  -0.010498
    25  C   -0.052575   0.216490   0.232560   0.024352   0.018686   0.004454
    26  C   -0.064119   0.039506   0.020684  -0.014781  -0.009818   0.000979
    27  C    0.032754   0.122470   0.206348   0.000287   0.020102  -0.003104
    28  C   -0.053379  -0.098189  -0.272436  -0.019078  -0.015901   0.001929
    29  H   -0.004094  -0.025386  -0.052065  -0.002902  -0.001700   0.000808
    30  H    0.008820   0.031824   0.044798   0.002465  -0.000255  -0.000861
    31  H   -0.002631  -0.003650   0.002610   0.000253  -0.000003  -0.000203
    32  H   -0.006998   0.085640   0.076132   0.000329   0.002209  -0.001466
    33  H   -0.000675  -0.005450   0.000341   0.000004  -0.000682   0.000205
    34  H    0.015325  -0.034008  -0.034812   0.000487   0.002879  -0.001694
    35  H   -0.001110   0.000429   0.004758  -0.000210   0.000959  -0.000234
    36  H   -0.013844  -0.025498  -0.034891  -0.002340  -0.004956   0.000906
    37  H   -0.004640  -0.009544  -0.020214  -0.000464  -0.004694   0.000762
              19         20         21         22         23         24
     1  C   -0.006709   0.005990  -0.017899   0.009889   0.010027   0.032119
     2  H    0.000510  -0.002263  -0.011670  -0.001766  -0.000937  -0.002018
     3  C   -0.005977   0.000192   0.004880   0.000707  -0.034149   0.009410
     4  N    0.000356   0.000672   0.005872   0.000880   0.001591   0.002300
     5  N   -0.000317  -0.001185  -0.005684  -0.001561  -0.004793  -0.009843
     6  N    0.000220   0.001534   0.008075   0.001393   0.005320   0.011046
     7  B    0.069537  -0.039708  -0.153691  -0.026434  -0.046457  -0.310406
     8  C    0.000009   0.000085   0.000217   0.000184   0.000244   0.000066
     9  H    0.000009   0.000002   0.000193  -0.000045   0.000017   0.000030
    10  H    0.000003   0.000011  -0.000037   0.000011   0.000033   0.000037
    11  H   -0.000014   0.000019   0.000154   0.000026  -0.000006   0.000003
    12  C    0.052916  -0.067158  -0.057434  -0.041197   0.031167  -0.104405
    13  C    0.012732  -0.037294   0.020752  -0.047031   0.031245   0.016351
    14  C    0.313646   0.454750   0.448848  -0.029840   0.047796   0.058276
    15  C   -0.057104   0.016440   0.078153   0.473185   0.283438   0.590095
    16  H   -0.004684   0.002494   0.005012   0.001996   0.004098   0.012496
    17  H   -0.002129   0.008030   0.012165   0.008089  -0.008149   0.004447
    18  H    0.003885  -0.000421  -0.002820  -0.000631   0.006034  -0.010498
    19  H    0.564596  -0.038764  -0.036916   0.001731  -0.001952  -0.002651
    20  H   -0.038764   0.544906  -0.026906   0.001340   0.001276   0.004249
    21  H   -0.036916  -0.026906   0.550612   0.000681   0.002476  -0.000252
    22  H    0.001731   0.001340   0.000681   0.537712  -0.043998  -0.019525
    23  H   -0.001952   0.001276   0.002476  -0.043998   0.592821  -0.029454
    24  H   -0.002651   0.004249  -0.000252  -0.019525  -0.029454   0.537222
    25  C   -0.067386   0.005809   0.022790  -0.006159   0.065971  -0.028951
    26  C    0.005401  -0.000215  -0.017097  -0.005580  -0.005592   0.041975
    27  C    0.048079   0.012044   0.003107   0.021518  -0.021537   0.024816
    28  C    0.013591  -0.005057  -0.014010  -0.007664  -0.015808  -0.024403
    29  H   -0.000236  -0.000407  -0.002186  -0.000857  -0.001334  -0.002544
    30  H    0.001527  -0.000544   0.001273   0.000375  -0.007222  -0.001082
    31  H   -0.001586   0.000153  -0.000420  -0.000124  -0.000077   0.000886
    32  H   -0.003315   0.001953   0.002613   0.000459   0.000210   0.005418
    33  H    0.002584   0.000348  -0.001702   0.000644  -0.000392  -0.001363
    34  H   -0.000995  -0.001310   0.005092  -0.000998  -0.016408  -0.000455
    35  H   -0.002157   0.000058   0.000910   0.000182  -0.002903   0.000668
    36  H    0.002378  -0.000822  -0.008525  -0.001145   0.001050  -0.001599
    37  H    0.001034  -0.000575  -0.002764  -0.000238   0.000482  -0.002799
              25         26         27         28         29         30
     1  C    0.050789   0.142917   0.025202  -0.077558   0.019556  -0.010408
     2  H   -0.022445   0.006620  -0.014015   0.031514   0.002489  -0.000996
     3  C   -0.917041   0.639763  -0.184116   0.356641   0.046701  -0.013718
     4  N    0.039199  -0.017569   0.011406  -0.066892  -0.013989   0.003747
     5  N   -0.257713   0.070881  -0.047985   0.281793   0.014547  -0.005580
     6  N    0.318151  -0.168423   0.050772  -0.308762  -0.003095   0.005690
     7  B    1.059176  -1.605588  -0.364085  -0.381663  -0.045327   0.019334
     8  C    0.002687  -0.004744  -0.000041   0.006086   0.000301  -0.000192
     9  H   -0.000181  -0.000246  -0.000063   0.000131  -0.000089   0.000018
    10  H    0.000478   0.000397   0.000189  -0.000351   0.000084  -0.000013
    11  H    0.001385  -0.000520   0.000286  -0.002070  -0.000171   0.000020
    12  C   -0.203341  -0.067242  -0.053861   0.046568   0.034505  -0.066460
    13  C   -0.052575  -0.064119   0.032754  -0.053379  -0.004094   0.008820
    14  C    0.216490   0.039506   0.122470  -0.098189  -0.025386   0.031824
    15  C    0.232560   0.020684   0.206348  -0.272436  -0.052065   0.044798
    16  H    0.024352  -0.014781   0.000287  -0.019078  -0.002902   0.002465
    17  H    0.018686  -0.009818   0.020102  -0.015901  -0.001700  -0.000255
    18  H    0.004454   0.000979  -0.003104   0.001929   0.000808  -0.000861
    19  H   -0.067386   0.005401   0.048079   0.013591  -0.000236   0.001527
    20  H    0.005809  -0.000215   0.012044  -0.005057  -0.000407  -0.000544
    21  H    0.022790  -0.017097   0.003107  -0.014010  -0.002186   0.001273
    22  H   -0.006159  -0.005580   0.021518  -0.007664  -0.000857   0.000375
    23  H    0.065971  -0.005592  -0.021537  -0.015808  -0.001334  -0.007222
    24  H   -0.028951   0.041975   0.024816  -0.024403  -0.002544  -0.001082
    25  C    6.590705  -0.671824   0.092012  -0.460075  -0.122259   0.052391
    26  C   -0.671824   7.176657  -0.320621   0.246570   0.480293   0.270621
    27  C    0.092012  -0.320621   6.335249  -0.569341   0.000500   0.023964
    28  C   -0.460075   0.246570  -0.569341   6.695665   0.026619   0.012046
    29  H   -0.122259   0.480293   0.000500   0.026619   0.474583  -0.027571
    30  H    0.052391   0.270621   0.023964   0.012046  -0.027571   0.550986
    31  H    0.004872   0.425156  -0.065103  -0.047184  -0.021440  -0.048861
    32  H    0.043079   0.056446   0.403046  -0.028434  -0.005477   0.001740
    33  H   -0.032593  -0.026161   0.391125  -0.036958   0.002896  -0.001255
    34  H    0.008582  -0.052326   0.340481   0.023456  -0.000785   0.001946
    35  H    0.011696  -0.061716  -0.032249   0.383037  -0.002698  -0.000486
    36  H   -0.077948   0.116687  -0.082863   0.494530   0.007824  -0.004732
    37  H   -0.105781   0.054229  -0.013784   0.470377   0.005632   0.003201
              31         32         33         34         35         36
     1  C    0.003940   0.021331  -0.005238  -0.005070   0.004149   0.017939
     2  H    0.000169  -0.001295   0.000170  -0.001403   0.000012   0.007227
     3  C    0.022432   0.004535   0.018027  -0.006545  -0.013329   0.073806
     4  N   -0.000871   0.001618   0.000001   0.000579  -0.000495  -0.011051
     5  N    0.000204  -0.002792  -0.000150  -0.001445   0.003496   0.026993
     6  N   -0.005138   0.000490   0.001988   0.001541  -0.010080  -0.028745
     7  B   -0.000603  -0.228596   0.051504  -0.020052   0.069461  -0.175239
     8  C   -0.000034   0.000051  -0.000069   0.000045   0.000293   0.000010
     9  H   -0.000014  -0.000015   0.000003  -0.000008   0.000009  -0.000131
    10  H    0.000032   0.000028  -0.000002   0.000004  -0.000037   0.000017
    11  H    0.000002  -0.000011  -0.000009   0.000033  -0.000018  -0.000257
    12  C    0.011194  -0.102628  -0.003854   0.093212   0.009264   0.013079
    13  C   -0.002631  -0.006998  -0.000675   0.015325  -0.001110  -0.013844
    14  C   -0.003650   0.085640  -0.005450  -0.034008   0.000429  -0.025498
    15  C    0.002610   0.076132   0.000341  -0.034812   0.004758  -0.034891
    16  H    0.000253   0.000329   0.000004   0.000487  -0.000210  -0.002340
    17  H   -0.000003   0.002209  -0.000682   0.002879   0.000959  -0.004956
    18  H   -0.000203  -0.001466   0.000205  -0.001694  -0.000234   0.000906
    19  H   -0.001586  -0.003315   0.002584  -0.000995  -0.002157   0.002378
    20  H    0.000153   0.001953   0.000348  -0.001310   0.000058  -0.000822
    21  H   -0.000420   0.002613  -0.001702   0.005092   0.000910  -0.008525
    22  H   -0.000124   0.000459   0.000644  -0.000998   0.000182  -0.001145
    23  H   -0.000077   0.000210  -0.000392  -0.016408  -0.002903   0.001050
    24  H    0.000886   0.005418  -0.001363  -0.000455   0.000668  -0.001599
    25  C    0.004872   0.043079  -0.032593   0.008582   0.011696  -0.077948
    26  C    0.425156   0.056446  -0.026161  -0.052326  -0.061716   0.116687
    27  C   -0.065103   0.403046   0.391125   0.340481  -0.032249  -0.082863
    28  C   -0.047184  -0.028434  -0.036958   0.023456   0.383037   0.494530
    29  H   -0.021440  -0.005477   0.002896  -0.000785  -0.002698   0.007824
    30  H   -0.048861   0.001740  -0.001255   0.001946  -0.000486  -0.004732
    31  H    0.550548   0.002347  -0.000347   0.001636   0.000689   0.000917
    32  H    0.002347   0.567815  -0.029236  -0.034277  -0.003452   0.006560
    33  H   -0.000347  -0.029236   0.550841  -0.047133  -0.001758   0.002396
    34  H    0.001636  -0.034277  -0.047133   0.628574   0.009156  -0.006986
    35  H    0.000689  -0.003452  -0.001758   0.009156   0.559164  -0.039114
    36  H    0.000917   0.006560   0.002396  -0.006986  -0.039114   0.579352
    37  H    0.004527  -0.002144   0.007428  -0.008798  -0.048748  -0.004987
              37
     1  C    0.051468
     2  H    0.006098
     3  C    0.055893
     4  N   -0.006773
     5  N    0.032163
     6  N   -0.020742
     7  B   -0.144086
     8  C   -0.000248
     9  H    0.000465
    10  H    0.000069
    11  H   -0.001319
    12  C   -0.012118
    13  C   -0.004640
    14  C   -0.009544
    15  C   -0.020214
    16  H   -0.000464
    17  H   -0.004694
    18  H    0.000762
    19  H    0.001034
    20  H   -0.000575
    21  H   -0.002764
    22  H   -0.000238
    23  H    0.000482
    24  H   -0.002799
    25  C   -0.105781
    26  C    0.054229
    27  C   -0.013784
    28  C    0.470377
    29  H    0.005632
    30  H    0.003201
    31  H    0.004527
    32  H   -0.002144
    33  H    0.007428
    34  H   -0.008798
    35  H   -0.048748
    36  H   -0.004987
    37  H    0.533178
 Mulliken charges:
               1
     1  C   -0.706498
     2  H    0.268116
     3  C   -0.625252
     4  N    0.355710
     5  N    0.195788
     6  N   -0.243463
     7  B    0.469445
     8  C   -0.355379
     9  H    0.200895
    10  H    0.213488
    11  H    0.200918
    12  C    0.006713
    13  C   -0.418390
    14  C   -0.493630
    15  C   -0.573761
    16  H    0.185284
    17  H    0.105202
    18  H    0.163824
    19  H    0.138148
    20  H    0.160273
    21  H    0.186141
    22  H    0.173786
    23  H    0.155874
    24  H    0.200339
    25  C    0.159958
    26  C   -0.681600
    27  C   -0.392987
    28  C   -0.585340
    29  H    0.219276
    30  H    0.153449
    31  H    0.165721
    32  H    0.166087
    33  H    0.164521
    34  H    0.142482
    35  H    0.162403
    36  H    0.174006
    37  H    0.188453
 Sum of Mulliken charges =  -0.00000
 Mulliken charges with hydrogens summed into heavy atoms:
               1
     1  C   -0.438381
     3  C   -0.625252
     4  N    0.355710
     5  N    0.195788
     6  N   -0.243463
     7  B    0.469445
     8  C    0.259922
    12  C    0.006713
    13  C    0.035919
    14  C   -0.009068
    15  C   -0.043761
    25  C    0.159958
    26  C   -0.143154
    27  C    0.080102
    28  C   -0.060478
 Electronic spatial extent (au):  <R**2>=           9863.1750
 Charge=             -0.0000 electrons
 Dipole moment (field-independent basis, Debye):
    X=             -0.2806    Y=              4.1172    Z=              2.9740  Tot=              5.0867
 Quadrupole moment (field-independent basis, Debye-Ang):
   XX=            -97.0958   YY=            -78.8497   ZZ=            -98.0953
   XY=              8.6635   XZ=              9.1707   YZ=              2.8185
 Traceless Quadrupole moment (field-independent basis, Debye-Ang):
   XX=             -5.7489   YY=             12.4972   ZZ=             -6.7484
   XY=              8.6635   XZ=              9.1707   YZ=              2.8185
 Octapole moment (field-independent basis, Debye-Ang**2):
  XXX=          -1073.4025  YYY=            121.5763  ZZZ=           -365.9452  XYY=           -319.3816
  XXY=             32.9784  XXZ=            -94.7529  XZZ=           -364.6118  YZZ=             21.8090
  YYZ=           -124.4899  XYZ=              6.5806
 Hexadecapole moment (field-independent basis, Debye-Ang**3):
 XXXX=          -9166.3922 YYYY=          -2170.7435 ZZZZ=          -2406.1031 XXXY=            323.3011
 XXXZ=          -1624.1820 YYYX=            490.0859 YYYZ=            415.2465 ZZZX=          -1719.5967
 ZZZY=            442.0597 XXYY=          -1853.7625 XXZZ=          -1942.6982 YYZZ=           -801.1897
 XXYZ=            147.4263 YYXZ=           -574.7233 ZZXY=            113.9688
 N-N= 1.050219635806D+03 E-N=-3.543030939777D+03  KE= 6.186285878091D+02
 Breneman (CHELPG) radii used.
 Generate Potential Derived Charges using the Breneman model, NDens= 1.
 Grid spacing= 0.300 Box extension= 2.800
 NStep X,Y,Z=   40     48     41   Total possible points=       78720
 Number of Points to Fit=   18745

 **********************************************************************

            Electrostatic Properties Using The SCF Density.

 **********************************************************************

       Atomic Center    1 is at   3.170399  1.857584  0.993571
       Atomic Center    2 is at   3.230423  2.429000  1.903952
       Atomic Center    3 is at   3.454412  0.539279  0.694318
       Atomic Center    4 is at   2.723553  2.404564 -0.151210
       Atomic Center    5 is at   2.742871  1.500667 -1.137994
       Atomic Center    6 is at   3.159556  0.384134 -0.640567
       Atomic Center    7 is at   3.917820 -0.634093  1.640188
       Atomic Center    8 is at   2.275176  3.761120 -0.399069
       Atomic Center    9 is at   3.081853  4.466602 -0.197984
       Atomic Center   10 is at   1.988589  3.823633 -1.446691
       Atomic Center   11 is at   1.414866  3.992128  0.229720
       Atomic Center   12 is at   5.147446 -0.377918  2.646620
       Atomic Center   13 is at   5.725024  1.048634  2.591127
       Atomic Center   14 is at   4.786892 -0.658227  4.120116
       Atomic Center   15 is at   6.284917 -1.331513  2.207774
       Atomic Center   16 is at   5.968568  1.358131  1.571624
       Atomic Center   17 is at   5.036351  1.785516  3.013873
       Atomic Center   18 is at   6.644561  1.097508  3.185864
       Atomic Center   19 is at   4.550092 -1.704093  4.307160
       Atomic Center   20 is at   5.636357 -0.392808  4.760778
       Atomic Center   21 is at   3.932555 -0.055431  4.446793
       Atomic Center   22 is at   7.161744 -1.170164  2.845870
       Atomic Center   23 is at   6.008309 -2.383824  2.286144
       Atomic Center   24 is at   6.592351 -1.141110  1.174071
       Atomic Center   25 is at   3.156736 -2.035393  1.439785
       Atomic Center   26 is at   3.777935 -2.676005  0.170447
       Atomic Center   27 is at   3.250677 -3.060507  2.582184
       Atomic Center   28 is at   1.652455 -1.804527  1.175645
       Atomic Center   29 is at   3.703809 -2.015306 -0.695193
       Atomic Center   30 is at   4.829300 -2.937871  0.320406
       Atomic Center   31 is at   3.237365 -3.601798 -0.061611
       Atomic Center   32 is at   2.762497 -2.699703  3.491958
       Atomic Center   33 is at   2.738168 -3.982570  2.283065
       Atomic Center   34 is at   4.277800 -3.332358  2.832964
       Atomic Center   35 is at   1.147138 -2.769037  1.046373
       Atomic Center   36 is at   1.172315 -1.293086  2.017500
       Atomic Center   37 is at   1.481131 -1.212459  0.276164
   18745 points will be used for fitting atomic charges
 Fitting point charges to electrostatic potential
 Charges from ESP fit, RMS=   0.00271 RRMS=   0.15445:
 ESP charges:
               1
     1  C   -0.384764
     2  H    0.177646
     3  C    0.173977
     4  N    0.551133
     5  N   -0.454577
     6  N   -0.165609
     7  B    0.109908
     8  C   -0.252906
     9  H    0.108376
    10  H    0.112068
    11  H    0.102791
    12  C    0.431915
    13  C   -0.340648
    14  C   -0.360443
    15  C   -0.290524
    16  H    0.041947
    17  H    0.065473
    18  H    0.071107
    19  H    0.067160
    20  H    0.070870
    21  H    0.061978
    22  H    0.059986
    23  H    0.062995
    24  H    0.053307
    25  C    0.340833
    26  C    0.006135
    27  C   -0.419596
    28  C   -0.394792
    29  H   -0.095625
    30  H   -0.012487
    31  H    0.007113
    32  H    0.101395
    33  H    0.079033
    34  H    0.074766
    35  H    0.089180
    36  H    0.050236
    37  H    0.100642
 Sum of ESP charges =  -0.00000
 ESP charges with hydrogens summed into heavy atoms:
               1
     1  C   -0.207119
     3  C    0.173977
     4  N    0.551133
     5  N   -0.454577
     6  N   -0.165609
     7  B    0.109908
     8  C    0.070330
    12  C    0.431915
    13  C   -0.162122
    14  C   -0.160434
    15  C   -0.114235
    25  C    0.340833
    26  C   -0.094864
    27  C   -0.164401
    28  C   -0.154734
 Charge=  -0.00000 Dipole=    -0.2694     4.0317     2.9604 Tot=     5.0091
 -----------------------------------------------------------------

              Electrostatic Properties (Atomic Units)

 -----------------------------------------------------------------
    Center     Electric         -------- Electric Field --------
               Potential          X             Y             Z
 -----------------------------------------------------------------
    1 Atom    -14.726861
    2 Atom     -1.049027
    3 Atom    -14.773033
    4 Atom    -18.295784
    5 Atom    -18.361121
    6 Atom    -18.397926
    7 Atom    -11.462264
    8 Atom    -14.709109
    9 Atom     -1.071491
   10 Atom     -1.075090
   11 Atom     -1.071022
   12 Atom    -14.773709
   13 Atom    -14.788436
   14 Atom    -14.785860
   15 Atom    -14.785160
   16 Atom     -1.128991
   17 Atom     -1.121777
   18 Atom     -1.128517
   19 Atom     -1.128499
   20 Atom     -1.126503
   21 Atom     -1.122990
   22 Atom     -1.125078
   23 Atom     -1.126612
   24 Atom     -1.126092
   25 Atom    -14.784460
   26 Atom    -14.801613
   27 Atom    -14.796476
   28 Atom    -14.802841
   29 Atom     -1.149764
   30 Atom     -1.138890
   31 Atom     -1.139570
   32 Atom     -1.133816
   33 Atom     -1.137847
   34 Atom     -1.133219
   35 Atom     -1.142275
   36 Atom     -1.137905
   37 Atom     -1.148350
 -----------------------------------------------------------------
 Unable to Open any file for archive entry.
 1\1\GINC-IRENE6259\SP\RwB97XD\GenECP\C11H22B1N3\PENASFRA\09-Apr-2024\0
 \\# wb97xd/genecp scrf=(solvent=toluene,pcm) nosymm pop=(chelpg) scfcy
 c=300\\tbu_metriazole_chelpg\\0,1\C,0,3.170399,1.857584,0.993571\H,0,3
 .230423,2.429,1.903952\C,0,3.454412,0.539279,0.694318\N,0,2.723553,2.4
 04564,-0.15121\N,0,2.742871,1.500667,-1.137994\N,0,3.159556,0.384134,-
 0.640567\B,0,3.91782,-0.634093,1.640188\C,0,2.275176,3.76112,-0.399069
 \H,0,3.081853,4.466602,-0.197984\H,0,1.988589,3.823633,-1.446691\H,0,1
 .414866,3.992128,0.22972\C,0,5.147446,-0.377918,2.64662\C,0,5.725024,1
 .048634,2.591127\C,0,4.786892,-0.658227,4.120116\C,0,6.284917,-1.33151
 3,2.207774\H,0,5.968568,1.358131,1.571624\H,0,5.036351,1.785516,3.0138
 73\H,0,6.644561,1.097508,3.185864\H,0,4.550092,-1.704093,4.30716\H,0,5
 .636357,-0.392808,4.760778\H,0,3.932555,-0.055431,4.446793\H,0,7.16174
 4,-1.170164,2.84587\H,0,6.008309,-2.383824,2.286144\H,0,6.592351,-1.14
 111,1.174071\C,0,3.156736,-2.035393,1.439785\C,0,3.777935,-2.676005,0.
 170447\C,0,3.250677,-3.060507,2.582184\C,0,1.652455,-1.804527,1.175645
 \H,0,3.703809,-2.015306,-0.695193\H,0,4.8293,-2.937871,0.320406\H,0,3.
 237365,-3.601798,-0.061611\H,0,2.762497,-2.699703,3.491958\H,0,2.73816
 8,-3.98257,2.283065\H,0,4.2778,-3.332358,2.832964\H,0,1.147138,-2.7690
 37,1.046373\H,0,1.172315,-1.293086,2.0175\H,0,1.481131,-1.212459,0.276
 164\\Version=AS64L-G16RevC.02\HF=-621.4780328\RMSD=7.837e-09\Dipole=-0
 .1103977,1.6198145,1.1700492\Quadrupole=-4.2741619,9.2913977,-5.017235
 7,6.4410988,6.8181781,2.0954966\PG=C01 [X(C11H22B1N3)]\\@
 The archive entry for this job was punched.


 WHAT, THEN, IS TIME?  IF NO ONE ASKS ME, I KNOW WHAT IT IS.
 IF I WISH TO EXPLAIN WHAT IT IS TO HIM WHO ASKS ME, I DO NOT KNOW.
                                   -- ST. AUGUSTINE (FIFTH CENTURY)
 Job cpu time:       0 days  1 hours 24 minutes 38.8 seconds.
 Elapsed time:       0 days  0 hours  0 minutes 53.1 seconds.
 File lengths (MBytes):  RWF=    215 Int=      0 D2E=      0 Chk=     16 Scr=      1
 Normal termination of Gaussian 16 at Tue Apr  9 16:39:26 2024.
