 Entering Gaussian System, Link 0=/ccc/products/gaussian-16-C.02/system/default/g16/g16
 Input=tbu_indole_chelpg.gjf
 Output=tbu_indole_chelpg.log
 Initial command:
 /ccc/products/gaussian-16-C.02/system/default/g16/l1.exe "/ccc/scratch/cont003/gen7343/penasfra/flp/b-n_flp/tbu_indole/reac/Gau-417495.inp" -scrdir="/ccc/scratch/cont003/gen7343/penasfra/flp/b-n_flp/tbu_indole/reac/"
 Entering Link 1 = /ccc/products/gaussian-16-C.02/system/default/g16/l1.exe PID=    417544.
  
 Copyright (c) 1988-2021, Gaussian, Inc.  All Rights Reserved.
  
 This is part of the Gaussian(R) 16 program.  It is based on
 the Gaussian(R) 09 system (copyright 2009, Gaussian, Inc.),
 the Gaussian(R) 03 system (copyright 2003, Gaussian, Inc.),
 the Gaussian(R) 98 system (copyright 1998, Gaussian, Inc.),
 the Gaussian(R) 94 system (copyright 1995, Gaussian, Inc.),
 the Gaussian 92(TM) system (copyright 1992, Gaussian, Inc.),
 the Gaussian 90(TM) system (copyright 1990, Gaussian, Inc.),
 the Gaussian 88(TM) system (copyright 1988, Gaussian, Inc.),
 the Gaussian 86(TM) system (copyright 1986, Carnegie Mellon
 University), and the Gaussian 82(TM) system (copyright 1983,
 Carnegie Mellon University). Gaussian is a federally registered
 trademark of Gaussian, Inc.
  
 This software contains proprietary and confidential information,
 including trade secrets, belonging to Gaussian, Inc.
  
 This software is provided under written license and may be
 used, copied, transmitted, or stored only in accord with that
 written license.
  
 The following legend is applicable only to US Government
 contracts under FAR:
  
                    RESTRICTED RIGHTS LEGEND
  
 Use, reproduction and disclosure by the US Government is
 subject to restrictions as set forth in subparagraphs (a)
 and (c) of the Commercial Computer Software - Restricted
 Rights clause in FAR 52.227-19.
  
 Gaussian, Inc.
 340 Quinnipiac St., Bldg. 40, Wallingford CT 06492
  
  
 ---------------------------------------------------------------
 Warning -- This program may not be used in any manner that
 competes with the business of Gaussian, Inc. or will provide
 assistance to any competitor of Gaussian, Inc.  The licensee
 of this program is prohibited from giving any competitor of
 Gaussian, Inc. access to this program.  By using this program,
 the user acknowledges that Gaussian, Inc. is engaged in the
 business of creating and licensing software in the field of
 computational chemistry and represents and warrants to the
 licensee that it is not a competitor of Gaussian, Inc. and that
 it will not use this program in any manner prohibited above.
 ---------------------------------------------------------------
  

 Cite this work as:
 Gaussian 16, Revision C.02,
 M. J. Frisch, G. W. Trucks, H. B. Schlegel, G. E. Scuseria, 
 M. A. Robb, J. R. Cheeseman, G. Scalmani, V. Barone, 
 G. A. Petersson, H. Nakatsuji, X. Li, M. Caricato, A. V. Marenich, 
 J. Bloino, B. G. Janesko, R. Gomperts, B. Mennucci, H. P. Hratchian, 
 J. V. Ortiz, A. F. Izmaylov, J. L. Sonnenberg, D. Williams-Young, 
 F. Ding, F. Lipparini, F. Egidi, J. Goings, B. Peng, A. Petrone, 
 T. Henderson, D. Ranasinghe, V. G. Zakrzewski, J. Gao, N. Rega, 
 G. Zheng, W. Liang, M. Hada, M. Ehara, K. Toyota, R. Fukuda, 
 J. Hasegawa, M. Ishida, T. Nakajima, Y. Honda, O. Kitao, H. Nakai, 
 T. Vreven, K. Throssell, J. A. Montgomery, Jr., J. E. Peralta, 
 F. Ogliaro, M. J. Bearpark, J. J. Heyd, E. N. Brothers, K. N. Kudin, 
 V. N. Staroverov, T. A. Keith, R. Kobayashi, J. Normand, 
 K. Raghavachari, A. P. Rendell, J. C. Burant, S. S. Iyengar, 
 J. Tomasi, M. Cossi, J. M. Millam, M. Klene, C. Adamo, R. Cammi, 
 J. W. Ochterski, R. L. Martin, K. Morokuma, O. Farkas, 
 J. B. Foresman, and D. J. Fox, Gaussian, Inc., Wallingford CT, 2019.
 
 ******************************************
 Gaussian 16:  AS64L-G16RevC.02  7-Dec-2021
                10-Apr-2024 
 ******************************************
 %nprocshared=128
 Will use up to  128 processors via shared memory.
 %mem=30GB
 %chk=tbu_indole_chelpg.chk
 ----------------------------------------------------------------------
 # wb97xd/genecp scrf=(solvent=toluene,pcm) nosymm pop=(chelpg) scfcyc=
 300
 ----------------------------------------------------------------------
 1/38=1,172=1/1;
 2/12=2,15=1,17=6,18=5,40=1/2;
 3/5=7,11=2,16=1,17=8,25=1,30=1,70=2201,72=13,74=-58/1,2,3;
 4//1;
 5/5=2,7=300,38=5,53=13/2;
 6/7=2,8=2,9=2,10=2,15=8,20=3,28=1/1,2;
 99/5=1,9=1/99;
 -----------------
 tbu_indole_chelpg
 -----------------
 Symbolic Z-matrix:
 Charge =  0 Multiplicity = 1
 C                    -1.14894  -1.39203  -0.12946 
 C                    -2.50002  -1.48506   0.09677 
 C                    -1.94119   0.71715  -0.0784 
 C                    -2.09059   2.10556  -0.13388 
 C                    -3.35494   2.64084   0.05747 
 C                    -4.44667   1.77742   0.29353 
 C                    -4.29917   0.40402   0.3371 
 C                    -3.02773  -0.15212   0.14432 
 H                    -1.24052   2.75458  -0.31932 
 H                    -5.43053   2.21257   0.44135 
 H                    -5.15848  -0.2342    0.51488 
 N                    -0.81144  -0.05203  -0.22526 
 H                    -3.05294  -2.40089   0.2422 
 B                    -0.03619  -2.51682  -0.15256 
 C                     0.49286   0.4737   -0.55698 
 H                     0.77625   1.26268   0.14439 
 H                     1.23802  -0.32076  -0.48819 
 H                     0.51188   0.87709  -1.57403 
 C                    -3.57916   4.13133   0.01878 
 H                    -3.97014   4.49526   0.9737 
 H                    -2.65154   4.66828  -0.19052 
 H                    -4.30551   4.40013  -0.75396 
 C                     0.76882  -2.73798   1.2111 
 C                     0.05851  -3.37782  -1.49652 
 C                     0.54724  -1.61245   2.23782 
 H                     0.9927   -1.89138   3.19977 
 H                     1.01811  -0.6771    1.92098 
 H                    -0.51424  -1.41122   2.401 
 C                     0.1136   -4.02454   1.77974 
 H                     0.2894   -4.89595   1.14404 
 H                     0.53721  -4.23923   2.76759 
 H                    -0.96808  -3.90635   1.90788 
 C                     2.28546  -2.95637   1.07542 
 H                     2.53654  -3.86237   0.52624 
 H                     2.77108  -2.11232   0.57356 
 H                     2.73392  -3.04141   2.07217 
 C                     1.2477   -4.33639  -1.64661 
 H                     2.20148  -3.80278  -1.66223 
 H                     1.28692  -5.08036  -0.84682 
 H                     1.16319  -4.88254  -2.59361 
 C                    -1.24239  -4.2138   -1.57375 
 H                    -2.1336   -3.58283  -1.57475 
 H                    -1.24357  -4.79234  -2.50488 
 H                    -1.32119  -4.92399  -0.74452 
 C                     0.07479  -2.41006  -2.70032 
 H                    -0.79758  -1.75177  -2.70255 
 H                     0.97367  -1.78366  -2.7029 
 H                     0.07231  -2.98032  -3.63654 
 
                          Input orientation:                          
 ---------------------------------------------------------------------
 Center     Atomic      Atomic             Coordinates (Angstroms)
 Number     Number       Type             X           Y           Z
 ---------------------------------------------------------------------
      1          6           0       -1.148941   -1.392031   -0.129459
      2          6           0       -2.500015   -1.485057    0.096773
      3          6           0       -1.941185    0.717148   -0.078399
      4          6           0       -2.090590    2.105559   -0.133878
      5          6           0       -3.354938    2.640841    0.057465
      6          6           0       -4.446670    1.777424    0.293526
      7          6           0       -4.299171    0.404022    0.337101
      8          6           0       -3.027734   -0.152115    0.144317
      9          1           0       -1.240521    2.754581   -0.319319
     10          1           0       -5.430535    2.212573    0.441353
     11          1           0       -5.158479   -0.234197    0.514880
     12          7           0       -0.811443   -0.052031   -0.225259
     13          1           0       -3.052939   -2.400889    0.242198
     14          5           0       -0.036194   -2.516821   -0.152559
     15          6           0        0.492861    0.473702   -0.556984
     16          1           0        0.776253    1.262677    0.144390
     17          1           0        1.238015   -0.320755   -0.488192
     18          1           0        0.511877    0.877088   -1.574033
     19          6           0       -3.579159    4.131331    0.018781
     20          1           0       -3.970143    4.495259    0.973702
     21          1           0       -2.651543    4.668275   -0.190520
     22          1           0       -4.305513    4.400127   -0.753964
     23          6           0        0.768821   -2.737975    1.211101
     24          6           0        0.058513   -3.377817   -1.496520
     25          6           0        0.547242   -1.612449    2.237815
     26          1           0        0.992702   -1.891381    3.199773
     27          1           0        1.018113   -0.677097    1.920984
     28          1           0       -0.514237   -1.411221    2.400996
     29          6           0        0.113596   -4.024538    1.779744
     30          1           0        0.289398   -4.895946    1.144045
     31          1           0        0.537208   -4.239229    2.767588
     32          1           0       -0.968079   -3.906351    1.907882
     33          6           0        2.285461   -2.956370    1.075423
     34          1           0        2.536537   -3.862367    0.526237
     35          1           0        2.771079   -2.112321    0.573557
     36          1           0        2.733919   -3.041414    2.072165
     37          6           0        1.247700   -4.336387   -1.646605
     38          1           0        2.201483   -3.802775   -1.662229
     39          1           0        1.286923   -5.080362   -0.846816
     40          1           0        1.163188   -4.882535   -2.593608
     41          6           0       -1.242394   -4.213802   -1.573754
     42          1           0       -2.133595   -3.582829   -1.574752
     43          1           0       -1.243566   -4.792340   -2.504877
     44          1           0       -1.321193   -4.923988   -0.744515
     45          6           0        0.074786   -2.410060   -2.700316
     46          1           0       -0.797575   -1.751774   -2.702552
     47          1           0        0.973669   -1.783656   -2.702895
     48          1           0        0.072306   -2.980318   -3.636544
 ---------------------------------------------------------------------
                    Distance matrix (angstroms):
                    1          2          3          4          5
     1  C    0.000000
     2  C    1.373039   0.000000
     3  C    2.253640   2.278746   0.000000
     4  C    3.622134   3.621236   1.397528   0.000000
     5  C    4.600589   4.213724   2.391182   1.386259   0.000000
     6  C    4.593406   3.804203   2.745900   2.416911   1.411769
     7  C    3.656150   2.619798   2.414702   2.827522   2.443999
     8  C    2.267644   1.434393   1.409187   2.460228   2.813398
     9  H    4.151966   4.442295   2.167973   1.085465   2.150735
    10  H    5.625926   4.730661   3.831710   3.390807   2.153807
    11  H    4.222813   2.967641   3.407054   3.912453   3.424592
    12  N    1.385165   2.237978   1.374599   2.509933   3.714951
    13  H    2.186580   1.079640   3.325798   4.623378   5.054144
    14  B    1.582369   2.682744   3.754071   5.058388   6.136746
    15  C    2.521756   3.636130   2.492567   3.084833   4.458654
    16  H    3.290720   4.276242   2.780595   3.001112   4.355873
    17  H    2.640811   3.958617   3.369345   4.134265   5.492177
    18  H    3.161331   4.176460   2.877502   3.218077   4.552457
    19  C    6.036179   5.719655   3.788014   2.518510   1.507757
    20  H    6.620901   6.220487   4.415621   3.235756   2.157970
    21  H    6.244105   6.161898   4.016041   2.624003   2.160266
    22  H    6.625937   6.214416   4.428405   3.248913   2.158031
    23  C    2.699348   3.673802   4.576551   5.783167   6.875167
    24  C    2.696321   3.559099   4.772693   6.045068   7.091598
    25  C    2.920549   3.726401   4.121182   5.138742   6.170203
    26  H    3.989959   4.689646   5.114541   6.049417   7.022614
    27  H    3.067828   4.044474   3.833914   4.650771   5.796981
    28  H    2.608912   3.042731   3.565604   4.612832   5.475484
    29  C    3.488431   4.014015   5.491667   6.789586   7.708713
    30  H    3.996004   4.528992   6.162523   7.504565   8.441860
    31  H    4.398013   4.893203   6.229586   7.455210   8.356371
    32  H    3.241184   3.389632   5.125328   6.447626   7.210192
    33  C    3.961567   5.101304   5.717567   6.799659   8.011187
    34  H    4.485002   5.585955   6.433315   7.580382   8.787545
    35  H    4.047173   5.329654   5.535013   6.475091   7.770906
    36  H    4.758594   5.806762   6.372465   7.391471   8.568618
    37  C    4.088380   5.021436   6.177902   7.411558   8.530524
    38  H    4.403000   5.529013   6.332450   7.460976   8.680515
    39  H    4.477926   5.306362   6.679990   7.972035   9.054368
    40  H    4.858147   5.674510   6.878943   8.091403   9.167488
    41  C    3.171295   3.437778   5.199871   6.536590   7.355940
    42  H    2.803214   2.707195   4.556961   5.868196   6.549037
    43  H    4.148936   4.391511   6.060439   7.343030   8.140987
    44  H    3.589246   3.731438   5.714063   7.097843   7.874384
    45  C    3.023772   3.912664   4.551705   5.627279   6.699251
    46  H    2.621771   3.287196   3.780159   4.811340   5.783845
    47  H    3.358782   4.471441   4.651707   5.578129   6.777359
    48  H    4.039028   4.773918   5.512331   6.543159   7.549115
                    6          7          8          9         10
     6  C    0.000000
     7  C    1.381987   0.000000
     8  C    2.399742   1.401073   0.000000
     9  H    3.407317   3.912973   3.443540   0.000000
    10  H    1.085909   2.135816   3.384292   4.292856   0.000000
    11  H    2.145295   1.085053   2.164285   4.997907   2.462946
    12  N    4.102550   3.562089   2.249122   2.840779   5.187371
    13  H    4.404931   3.070770   2.251044   5.493545   5.193906
    14  B    6.171858   5.190767   3.824824   5.409796   7.198529
    15  C    5.178998   4.875225   3.643907   2.874632   6.253557
    16  H    5.250346   5.151151   4.058565   2.551114   6.286072
    17  H    6.109753   5.645072   4.315683   3.953397   7.193842
    18  H    5.374530   5.198308   4.067042   2.858354   6.415416
    19  C    2.523676   3.809538   4.320618   2.734772   2.699591
    20  H    2.841891   4.153521   4.813948   3.486072   2.761665
    21  H    3.437121   4.601838   4.846627   2.381134   3.761985
    22  H    2.827672   4.142381   4.812747   3.505840   2.734931
    23  C    6.959319   6.026654   4.715775   6.045479   7.970725
    24  C    7.076542   6.054245   4.756303   6.378056   8.070778
    25  C    6.341187   5.582704   4.392694   5.367120   7.320648
    26  H    7.175874   6.439541   5.340858   6.241495   8.106127
    27  H    6.207829   5.652523   4.449835   4.679402   7.219734
    28  H    5.483878   4.677659   3.604943   5.028072   6.414208
    29  C    7.527791   6.416064   5.247689   7.224690   8.451641
    30  H    8.227247   7.056613   5.874245   7.938051   9.151090
    31  H    8.195129   7.131452   6.024522   7.848738   9.091264
    32  H    6.856533   5.669466   4.631050   7.028703   7.713978
    33  C    8.266907   7.429316   6.079543   6.855131   9.308953
    34  H    8.979230   8.060071   6.698727   7.665842  10.019298
    35  H    8.203928   7.508417   6.136195   6.370000   9.273007
    36  H    8.828681   8.021585   6.727651   7.423539   9.844909
    37  C    8.577217   7.561372   6.244587   7.631170   9.583698
    38  H    8.897277   7.997060   6.628396   7.526601   9.942694
    39  H    9.011309   7.917359   6.624668   8.249397   9.998526
    40  H    9.173936   8.147031   6.887448   8.323205  10.150307
    41  C    7.046198   5.858289   4.757784   7.080394   7.930919
    42  H    6.129689   4.923401   3.940112   6.521998   6.965714
    43  H    7.826413   6.664513   5.633220   7.857015   8.676392
    44  H    7.466931   6.198866   5.145199   7.690756   8.320065
    45  C    6.851400   6.022994   4.776597   5.837182   7.845214
    46  H    5.894711   5.113523   3.954388   5.116956   6.860357
    47  H    7.144222   6.467639   5.174917   5.583876   8.177406
    48  H    7.648706   6.808335   5.648353   6.754003   8.595151
                   11         12         13         14         15
    11  H    0.000000
    12  N    4.413356   0.000000
    13  H    3.033514   3.280237   0.000000
    14  B    5.647446   2.584857   3.044671   0.000000
    15  C    5.795486   1.444869   4.634076   3.063770   0.000000
    16  H    6.131797   2.094248   5.300377   3.877222   1.093032
    17  H    6.475244   2.083657   4.824180   2.561047   1.091398
    18  H    6.144221   2.105618   5.172209   3.720160   1.094290
    19  C    4.668854   5.021984   6.557188   7.535243   5.503735
    20  H    4.898001   5.665045   6.995228   8.118724   6.199542
    21  H    5.551266   5.066405   7.093761   7.646378   5.255094
    22  H    4.880008   5.684168   6.986780   8.150641   6.203226
    23  C    6.471979   3.431422   3.957051   1.598914   3.676567
    24  C    6.414443   3.665212   3.695763   1.598910   3.988181
    25  C    6.117462   3.216778   4.191113   2.621483   3.487963
    26  H    6.913171   4.285906   5.037267   3.562012   4.467290
    27  H    6.350085   2.888657   4.728979   2.965759   2.782185
    28  H    5.148961   2.972027   3.476328   2.823388   3.649223
    29  C    6.615235   4.544947   3.876497   2.455492   5.083139
    30  H    7.197716   5.152704   4.267301   2.728998   5.636312
    31  H    7.318185   5.320585   4.758807   3.438421   5.767709
    32  H    5.743224   4.408016   3.063913   2.654170   5.234002
    33  C    7.945859   4.440470   5.431513   2.662935   4.200424
    34  H    8.507468   5.127609   5.784362   2.981644   4.914415
    35  H    8.149152   4.209200   5.840570   2.927737   3.627108
    36  H    8.520302   5.175341   6.103014   3.591395   4.928570
    37  C    7.908167   4.961451   5.080278   2.681674   4.989390
    38  H    8.464254   5.021024   5.762038   2.989980   4.735949
    39  H    8.178187   5.483939   5.215355   2.967217   5.618021
    40  H    8.439977   5.730795   5.654740   3.604697   5.769441
    41  C    5.961155   4.395964   3.140447   2.520805   5.100747
    42  H    4.972909   4.004466   2.354460   2.749199   4.938579
    43  H    6.724741   5.277681   4.066853   3.488429   5.877131
    44  H    6.189102   4.925996   3.215366   2.792147   5.697457
    45  C    6.516052   3.531517   4.294314   2.552407   3.617284
    46  H    5.627823   3.004380   3.765577   2.769018   3.349840
    47  H    7.096347   3.510531   5.026741   2.839290   3.151472
    48  H    7.220569   4.581784   5.014732   3.516355   4.646591
                   16         17         18         19         20
    16  H    0.000000
    17  H    1.766534   0.000000
    18  H    1.780885   1.772330   0.000000
    19  C    5.216758   6.579001   5.464772   0.000000
    20  H    5.802208   7.242654   6.298462   1.094160   0.000000
    21  H    4.843557   6.333063   5.127810   1.092056   1.767499
    22  H    6.039452   7.286156   6.024248   1.094064   1.762485
    23  C    4.140428   2.991771   4.570741   8.216686   8.650654
    24  C    4.974125   3.428349   4.279692   8.480336   9.182450
    25  C    3.563878   3.094633   4.552936   7.412308   7.701224
    26  H    4.396623   4.015984   5.539390   8.203273   8.388945
    27  H    2.641497   2.445295   3.858356   6.919123   7.247986
    28  H    3.729258   3.550621   4.700013   6.766726   6.990491
    29  C    5.573880   4.486185   5.952511   9.124452   9.482277
    30  H    6.258193   4.949388   6.384776   9.885529  10.313459
    31  H    6.099941   5.142536   6.710217   9.724541   9.991272
    32  H    5.733363   4.844019   6.098794   8.659721   8.970626
    33  C    4.576559   3.238596   4.986042   9.259901   9.729836
    34  H    5.432355   3.906180   5.565323  10.077622  10.601275
    35  H    3.943872   2.585982   4.318877   8.922807   9.447979
    36  H    5.106268   4.024319   5.795420   9.773413  10.146552
    37  C    5.897410   4.179392   5.265646   9.888090  10.587250
    38  H    5.563628   3.798828   4.976310   9.959501  10.672135
    39  H    6.440296   4.773349   6.051508  10.453865  11.074455
    40  H    6.738693   5.024760   5.885320  10.514952  11.270306
    41  C    6.084306   4.742013   5.384666   8.811236   9.475120
    42  H    5.907757   4.815547   5.185497   8.008575   8.667354
    43  H    6.910971   5.497303   6.007534   9.563250  10.285632
    44  H    6.592743   5.273045   6.140092   9.363751   9.934356
    45  C    4.698234   3.257574   3.502128   7.970859   8.805867
    46  H    4.434967   3.330891   3.146289   7.053636   7.912361
    47  H    4.174464   2.667371   2.926968   7.944988   8.796784
    48  H    5.726605   4.283021   4.396221   8.790344   9.668506
                   21         22         23         24         25
    21  H    0.000000
    22  H    1.767764   0.000000
    23  C    8.277437   8.975681   0.000000
    24  C    8.590089   8.949443   2.871436   0.000000
    25  C    7.454967   8.285592   1.539496   4.159404   0.000000
    26  H    8.234300   9.126127   2.172938   5.013718   1.096176
    27  H    6.818931   7.827806   2.193923   4.460275   1.094068
    28  H    6.945812   7.622290   2.195988   4.402973   1.092638
    29  C    9.332359   9.844957   1.551747   3.339938   2.493201
    30  H   10.094777  10.541946   2.211602   3.054604   3.470471
    31  H    9.912727  10.511505   2.174870   4.376505   2.679689
    32  H    8.986743   9.339243   2.206225   3.594884   2.768942
    33  C    9.171250  10.045180   1.538279   3.428091   2.485696
    34  H   10.010083  10.803766   2.204113   3.235265   3.456722
    35  H    8.715797   9.708370   2.192474   3.639329   2.822247
    36  H    9.672758  10.626248   2.166822   4.472860   2.617430
    37  C    9.920092  10.390460   3.309189   1.534779   4.795748
    38  H    9.873018  10.509688   3.382654   2.190974   4.769107
    39  H   10.534617  11.007435   3.160732   2.197673   4.699840
    40  H   10.561486  10.929721   4.385256   2.165199   5.866473
    41  C    9.098919   9.179026   3.738779   1.548288   4.949535
    42  H    8.382427   8.313754   4.110812   2.203063   5.060134
    43  H    9.840827   9.845947   4.698788   2.170960   5.984298
    44  H    9.699910   9.790065   3.601562   2.204483   4.832353
    45  C    7.989667   8.327902   3.986025   1.544650   5.024394
    46  H    7.138945   7.344965   4.329303   2.198048   5.122028
    47  H    7.815472   8.361057   4.033863   2.198682   4.962033
    48  H    8.820171   9.052377   4.903420   2.176671   6.050184
                   26         27         28         29         30
    26  H    0.000000
    27  H    1.763642   0.000000
    28  H    1.771853   1.765629   0.000000
    29  C    2.709182   3.470369   2.758542   0.000000
    30  H    3.707838   4.351247   3.790655   1.092873   0.000000
    31  H    2.430360   3.692803   3.039335   1.096073   1.768779
    32  H    3.094147   3.791202   2.583565   1.095631   1.773131
    33  C    2.705234   2.741574   3.461638   2.520724   2.784049
    34  H    3.662787   3.794321   4.339362   2.732805   2.549432
    35  H    3.179379   2.635966   3.824183   3.489080   3.772634
    36  H    2.371901   2.925208   3.649134   2.813918   3.205679
    37  C    5.434193   5.115741   5.295667   3.622611   3.003194
    38  H    5.362242   4.899964   5.440998   4.031827   3.567389
    39  H    5.160528   5.207852   5.220637   3.064356   2.234411
    40  H    6.522218   6.171572   6.309504   4.578647   3.838455
    41  C    5.759848   5.461810   4.917653   3.622220   3.193452
    42  H    5.952379   5.531429   4.810902   4.061726   3.871308
    43  H    6.779343   6.452803   6.002622   4.559538   3.959210
    44  H    5.487096   5.532931   4.783822   3.039657   2.482227
    45  C    5.993551   5.024882   5.231445   4.762246   4.583099
    46  H    6.169443   5.082198   5.122739   5.107511   5.085630
    47  H    5.903682   4.754651   5.329379   5.084814   4.995350
    48  H    6.983419   6.089786   6.265619   5.516183   5.154686
                   31         32         33         34         35
    31  H    0.000000
    32  H    1.765160   0.000000
    33  C    2.750552   3.490125   0.000000
    34  H    3.027044   3.767388   1.088795   0.000000
    35  H    3.785193   4.356635   1.095497   1.766327   0.000000
    36  H    2.596905   3.805246   1.096285   1.761481   1.763638
    37  C    4.472062   4.210580   3.223481   2.570416   3.492316
    38  H    4.752219   4.775201   2.866739   2.214768   2.860212
    39  H    3.785960   3.748559   3.033714   2.220433   3.609632
    40  H    5.435818   5.075298   4.293180   3.558126   4.504479
    41  C    4.692002   3.505933   4.587487   4.337486   5.013495
    42  H    5.140036   3.686710   5.190755   5.128589   5.552788
    43  H    5.592493   4.509247   5.351950   4.933729   5.725088
    44  H    4.032049   2.862776   4.493512   4.198087   5.137069
    45  C    5.784260   4.956001   4.409279   4.310459   4.251692
    46  H    6.155608   5.091893   5.022873   5.098626   4.857795
    47  H    6.012198   5.434656   4.167942   4.146190   3.751512
    48  H    6.543233   5.716695   5.205887   4.917234   5.075603
                   36         37         38         39         40
    36  H    0.000000
    37  C    4.208925   0.000000
    38  H    3.848228   1.093018   0.000000
    39  H    3.843378   1.093023   1.770183   0.000000
    40  H    5.256078   1.096465   1.763918   1.762308   0.000000
    41  C    5.520714   2.494174   3.469447   2.770706   2.697060
    42  H    6.106212   3.464992   4.341535   3.804266   3.687286
    43  H    6.311532   2.674122   3.682072   3.038996   2.410077
    44  H    5.284099   2.785364   3.809011   2.614802   3.097259
    45  C    5.499652   2.489331   2.745928   3.469186   2.703542
    46  H    6.077215   3.460982   3.779316   4.343776   3.695690
    47  H    5.242293   2.776198   2.582122   3.796239   3.106592
    48  H    6.298990   2.679614   3.017905   3.697034   2.428203
                   41         42         43         44         45
    41  C    0.000000
    42  H    1.091956   0.000000
    43  H    1.096220   1.766409   0.000000
    44  H    1.094628   1.774260   1.766984   0.000000
    45  C    2.501518   2.742121   2.729745   3.477607   0.000000
    46  H    2.744746   2.531728   3.079452   3.764442   1.092867
    47  H    3.477284   3.763618   3.742662   4.354690   1.095618
    48  H    2.739529   3.078962   2.509106   3.752802   1.096231
                   46         47         48
    46  H    0.000000
    47  H    1.771531   0.000000
    48  H    1.771540   1.765264   0.000000
 Symmetry turned off by external request.
 Stoichiometry    C18H28BN
 Framework group  C1[X(C18H28BN)]
 Deg. of freedom   138
 Full point group                 C1      NOp   1
 Rotational constants (GHZ):           0.6561811           0.1947527           0.1863273
 General basis read from cards:  (5D, 7F)
 ======================================================================================================
                                       Pseudopotential Parameters
 ======================================================================================================
  Center     Atomic      Valence      Angular      Power
  Number     Number     Electrons     Momentum     of R      Exponent        Coefficient   SO-Coeffient
 ======================================================================================================
    1          6
                                   No pseudopotential on this center.
    2          6
                                   No pseudopotential on this center.
    3          6
                                   No pseudopotential on this center.
    4          6
                                   No pseudopotential on this center.
    5          6
                                   No pseudopotential on this center.
    6          6
                                   No pseudopotential on this center.
    7          6
                                   No pseudopotential on this center.
    8          6
                                   No pseudopotential on this center.
    9          1
                                   No pseudopotential on this center.
   10          1
                                   No pseudopotential on this center.
   11          1
                                   No pseudopotential on this center.
   12          7
                                   No pseudopotential on this center.
   13          1
                                   No pseudopotential on this center.
   14          5
                                   No pseudopotential on this center.
   15          6
                                   No pseudopotential on this center.
   16          1
                                   No pseudopotential on this center.
   17          1
                                   No pseudopotential on this center.
   18          1
                                   No pseudopotential on this center.
   19          6
                                   No pseudopotential on this center.
   20          1
                                   No pseudopotential on this center.
   21          1
                                   No pseudopotential on this center.
   22          1
                                   No pseudopotential on this center.
   23          6
                                   No pseudopotential on this center.
   24          6
                                   No pseudopotential on this center.
   25          6
                                   No pseudopotential on this center.
   26          1
                                   No pseudopotential on this center.
   27          1
                                   No pseudopotential on this center.
   28          1
                                   No pseudopotential on this center.
   29          6
                                   No pseudopotential on this center.
   30          1
                                   No pseudopotential on this center.
   31          1
                                   No pseudopotential on this center.
   32          1
                                   No pseudopotential on this center.
   33          6
                                   No pseudopotential on this center.
   34          1
                                   No pseudopotential on this center.
   35          1
                                   No pseudopotential on this center.
   36          1
                                   No pseudopotential on this center.
   37          6
                                   No pseudopotential on this center.
   38          1
                                   No pseudopotential on this center.
   39          1
                                   No pseudopotential on this center.
   40          1
                                   No pseudopotential on this center.
   41          6
                                   No pseudopotential on this center.
   42          1
                                   No pseudopotential on this center.
   43          1
                                   No pseudopotential on this center.
   44          1
                                   No pseudopotential on this center.
   45          6
                                   No pseudopotential on this center.
   46          1
                                   No pseudopotential on this center.
   47          1
                                   No pseudopotential on this center.
   48          1
                                   No pseudopotential on this center.
 ======================================================================================================
   636 basis functions,   972 primitive gaussians,   656 cartesian basis functions
    74 alpha electrons       74 beta electrons
       nuclear repulsion energy      1595.3759684893 Hartrees.
 NAtoms=   48 NActive=   48 NUniq=   48 SFac= 1.00D+00 NAtFMM=   60 NAOKFM=F Big=F
 Integral buffers will be    131072 words long.
 Raffenetti 2 integral format.
 Two-electron integral symmetry is turned off.
 Nuclear repulsion after empirical dispersion term =     1595.3278267305 Hartrees.
 ------------------------------------------------------------------------------
 Polarizable Continuum Model (PCM)
 =================================
 Model                : PCM.
 Atomic radii         : UFF (Universal Force Field).
 Polarization charges : Total charges.
 Charge compensation  : None.
 Solution method      : On-the-fly selection.
 Cavity type          : Scaled VdW (van der Waals Surface) (Alpha=1.100).
 Cavity algorithm     : GePol (No added spheres)
                        Default sphere list used, NSphG=   48.
                        Lebedev-Laikov grids with approx.  5.0 points / Ang**2.
                        Smoothing algorithm: York/Karplus (Gamma=1.0000).
                        Polarization charges: spherical gaussians, with
                                              point-specific exponents (IZeta= 3).
                        Self-potential: point-specific (ISelfS= 7).
                        Self-field    : sphere-specific E.n sum rule (ISelfD= 2).
 Solvent              : Toluene, Eps=   2.374100 Eps(inf)=   2.238315
 ------------------------------------------------------------------------------
 One-electron integrals computed using PRISM.
   1 Symmetry operations used in ECPInt.
 ECPInt:  NShTT=   33930 NPrTT=  104640 LenC2=   30895 LenP2D=   68417.
 LDataN:  DoStor=T MaxTD1= 4 Len=   56
 Number of processors reduced to  70 by ecpmxn.
 NBasis=   636 RedAO= T EigKep=  1.61D-06  NBF=   636
 NBsUse=   632 1.00D-06 EigRej=  6.72D-07 NBFU=   632
 ExpMin= 3.15D-02 ExpMax= 6.29D+03 ExpMxC= 9.49D+02 IAcc=3 IRadAn=         5 AccDes= 0.00D+00
 Harris functional with IExCor= 4639 and IRadAn=       5 diagonalized for initial guess.
 HarFok:  IExCor= 4639 AccDes= 0.00D+00 IRadAn=         5 IDoV= 1 UseB2=F ITyADJ=14
 ICtDFT=  3500011 ScaDFX=  1.000000  1.000000  1.000000  1.000000
 FoFCou: FMM=F IPFlag=           0 FMFlag=      100000 FMFlg1=           0
         NFxFlg=           0 DoJE=T BraDBF=F KetDBF=T FulRan=T
         wScrn=  0.000000 ICntrl=       500 IOpCl=  0 I1Cent=   200000004 NGrid=           0
         NMat0=    1 NMatS0=      1 NMatT0=    0 NMatD0=    1 NMtDS0=    0 NMtDT0=    0
 Symmetry not used in FoFCou.
 Requested convergence on RMS density matrix=1.00D-08 within 300 cycles.
 Requested convergence on MAX density matrix=1.00D-06.
 Requested convergence on             energy=1.00D-06.
 No special actions if energy rises.
 Inv3:  Mode=1 IEnd=    25789872.
 Iteration    1 A*A^-1 deviation from unit magnitude is 5.55D-15 for   2920.
 Iteration    1 A*A^-1 deviation from orthogonality  is 1.54D-15 for   2522    594.
 Iteration    1 A^-1*A deviation from unit magnitude is 5.55D-15 for   2920.
 Iteration    1 A^-1*A deviation from orthogonality  is 2.44D-15 for   1620    991.
 Error on total polarization charges =  0.01327
 SCF Done:  E(RwB97XD) =  -782.364603194     A.U. after   15 cycles
            NFock= 15  Conv=0.94D-08     -V/T= 2.0048

 **********************************************************************

            Population analysis using the SCF Density.

 **********************************************************************

 Alpha  occ. eigenvalues --  -14.47480 -10.32621 -10.30868 -10.29494 -10.28859
 Alpha  occ. eigenvalues --  -10.28030 -10.28022 -10.27997 -10.27905 -10.27755
 Alpha  occ. eigenvalues --  -10.27651 -10.27323 -10.27178 -10.27154 -10.27003
 Alpha  occ. eigenvalues --  -10.26994 -10.26744 -10.26444 -10.26320  -6.85599
 Alpha  occ. eigenvalues --   -1.08898  -0.94968  -0.91464  -0.90195  -0.89854
 Alpha  occ. eigenvalues --   -0.84735  -0.84310  -0.78835  -0.78560  -0.78366
 Alpha  occ. eigenvalues --   -0.77898  -0.77342  -0.76778  -0.70692  -0.67616
 Alpha  occ. eigenvalues --   -0.67311  -0.64091  -0.63860  -0.60822  -0.57534
 Alpha  occ. eigenvalues --   -0.56886  -0.56430  -0.54553  -0.53739  -0.53195
 Alpha  occ. eigenvalues --   -0.52973  -0.52098  -0.51754  -0.51405  -0.50492
 Alpha  occ. eigenvalues --   -0.50246  -0.49562  -0.48054  -0.47843  -0.47281
 Alpha  occ. eigenvalues --   -0.47174  -0.46332  -0.45975  -0.45828  -0.45397
 Alpha  occ. eigenvalues --   -0.44789  -0.44465  -0.43251  -0.42189  -0.41438
 Alpha  occ. eigenvalues --   -0.41131  -0.40665  -0.40345  -0.40084  -0.37209
 Alpha  occ. eigenvalues --   -0.35906  -0.34853  -0.28858  -0.26879
 Alpha virt. eigenvalues --    0.02832   0.03755   0.04509   0.04800   0.05006
 Alpha virt. eigenvalues --    0.05354   0.05787   0.06065   0.06533   0.06756
 Alpha virt. eigenvalues --    0.07189   0.07543   0.07639   0.07753   0.08366
 Alpha virt. eigenvalues --    0.08963   0.09206   0.09403   0.09514   0.09841
 Alpha virt. eigenvalues --    0.10085   0.10430   0.10768   0.11508   0.11896
 Alpha virt. eigenvalues --    0.12298   0.12406   0.13028   0.13183   0.13388
 Alpha virt. eigenvalues --    0.13879   0.14009   0.14340   0.14879   0.14984
 Alpha virt. eigenvalues --    0.15207   0.15683   0.16117   0.16332   0.16497
 Alpha virt. eigenvalues --    0.16874   0.17237   0.17386   0.17572   0.17611
 Alpha virt. eigenvalues --    0.18020   0.18330   0.18509   0.18800   0.18901
 Alpha virt. eigenvalues --    0.19079   0.19330   0.19506   0.19700   0.20004
 Alpha virt. eigenvalues --    0.20097   0.20302   0.20920   0.20962   0.21041
 Alpha virt. eigenvalues --    0.21239   0.21427   0.21594   0.21686   0.21879
 Alpha virt. eigenvalues --    0.22383   0.22522   0.22632   0.23046   0.23327
 Alpha virt. eigenvalues --    0.23643   0.23743   0.23788   0.24256   0.24680
 Alpha virt. eigenvalues --    0.24947   0.25381   0.25509   0.25634   0.25827
 Alpha virt. eigenvalues --    0.26038   0.26295   0.26339   0.26793   0.26996
 Alpha virt. eigenvalues --    0.27574   0.27811   0.27920   0.28357   0.28656
 Alpha virt. eigenvalues --    0.28759   0.29359   0.29613   0.30136   0.30343
 Alpha virt. eigenvalues --    0.30375   0.30605   0.30947   0.31216   0.31261
 Alpha virt. eigenvalues --    0.31559   0.31992   0.32187   0.32517   0.32833
 Alpha virt. eigenvalues --    0.33386   0.33686   0.33811   0.34387   0.34577
 Alpha virt. eigenvalues --    0.34739   0.34940   0.35209   0.35426   0.35780
 Alpha virt. eigenvalues --    0.35975   0.36556   0.36771   0.37190   0.37448
 Alpha virt. eigenvalues --    0.37859   0.38410   0.38673   0.38974   0.39289
 Alpha virt. eigenvalues --    0.39334   0.39819   0.40163   0.40483   0.40961
 Alpha virt. eigenvalues --    0.41239   0.41464   0.42169   0.42369   0.42666
 Alpha virt. eigenvalues --    0.43069   0.43457   0.44378   0.44782   0.45045
 Alpha virt. eigenvalues --    0.45339   0.45694   0.45952   0.46457   0.47650
 Alpha virt. eigenvalues --    0.47715   0.48792   0.50220   0.50618   0.50935
 Alpha virt. eigenvalues --    0.52210   0.52922   0.53308   0.53688   0.54515
 Alpha virt. eigenvalues --    0.55153   0.55541   0.55909   0.56172   0.57541
 Alpha virt. eigenvalues --    0.58097   0.59782   0.60345   0.61091   0.62158
 Alpha virt. eigenvalues --    0.62705   0.63488   0.64157   0.64540   0.64777
 Alpha virt. eigenvalues --    0.65071   0.65687   0.66315   0.66638   0.66852
 Alpha virt. eigenvalues --    0.67610   0.67931   0.68905   0.69483   0.69755
 Alpha virt. eigenvalues --    0.70332   0.70471   0.70705   0.71127   0.72155
 Alpha virt. eigenvalues --    0.72288   0.72647   0.72769   0.74229   0.74632
 Alpha virt. eigenvalues --    0.75350   0.75557   0.75891   0.76338   0.76987
 Alpha virt. eigenvalues --    0.77272   0.77492   0.77679   0.78042   0.78678
 Alpha virt. eigenvalues --    0.79023   0.79491   0.79676   0.80784   0.81148
 Alpha virt. eigenvalues --    0.81657   0.82006   0.82310   0.82674   0.83208
 Alpha virt. eigenvalues --    0.83824   0.84128   0.84353   0.84765   0.85031
 Alpha virt. eigenvalues --    0.85822   0.86112   0.86904   0.87227   0.88203
 Alpha virt. eigenvalues --    0.88494   0.88655   0.89255   0.89783   0.90259
 Alpha virt. eigenvalues --    0.91003   0.91785   0.92213   0.92583   0.93051
 Alpha virt. eigenvalues --    0.93795   0.94573   0.95341   0.95484   0.96819
 Alpha virt. eigenvalues --    0.97891   0.98397   0.98968   0.99773   1.00129
 Alpha virt. eigenvalues --    1.01357   1.01769   1.03289   1.03703   1.04644
 Alpha virt. eigenvalues --    1.06063   1.06932   1.07517   1.08269   1.08316
 Alpha virt. eigenvalues --    1.09466   1.11152   1.11963   1.12914   1.13417
 Alpha virt. eigenvalues --    1.13817   1.14345   1.14982   1.16013   1.16667
 Alpha virt. eigenvalues --    1.17387   1.18774   1.19666   1.21125   1.21677
 Alpha virt. eigenvalues --    1.22888   1.23900   1.24129   1.24841   1.26225
 Alpha virt. eigenvalues --    1.27645   1.28504   1.29780   1.32133   1.33370
 Alpha virt. eigenvalues --    1.34561   1.37710   1.38971   1.40185   1.40847
 Alpha virt. eigenvalues --    1.42692   1.44650   1.46201   1.47226   1.48114
 Alpha virt. eigenvalues --    1.49609   1.51545   1.52876   1.53591   1.54345
 Alpha virt. eigenvalues --    1.54887   1.55296   1.56122   1.56253   1.56502
 Alpha virt. eigenvalues --    1.57763   1.58737   1.59966   1.60499   1.61784
 Alpha virt. eigenvalues --    1.61983   1.62750   1.63659   1.64000   1.64330
 Alpha virt. eigenvalues --    1.64994   1.65483   1.65998   1.66608   1.67351
 Alpha virt. eigenvalues --    1.67756   1.68301   1.68455   1.69051   1.69898
 Alpha virt. eigenvalues --    1.70132   1.70521   1.71259   1.71890   1.72913
 Alpha virt. eigenvalues --    1.73144   1.73823   1.74141   1.75763   1.75975
 Alpha virt. eigenvalues --    1.76903   1.77404   1.78316   1.78628   1.79296
 Alpha virt. eigenvalues --    1.79465   1.80603   1.81266   1.82089   1.82758
 Alpha virt. eigenvalues --    1.83058   1.83891   1.84321   1.84524   1.85475
 Alpha virt. eigenvalues --    1.85874   1.86760   1.87365   1.87732   1.88748
 Alpha virt. eigenvalues --    1.88877   1.89565   1.90449   1.91820   1.92354
 Alpha virt. eigenvalues --    1.93295   1.93832   1.95352   1.96697   1.97197
 Alpha virt. eigenvalues --    1.97503   1.98572   1.98925   1.99315   2.01118
 Alpha virt. eigenvalues --    2.02402   2.03706   2.05779   2.06740   2.07027
 Alpha virt. eigenvalues --    2.07767   2.09593   2.10049   2.10510   2.10850
 Alpha virt. eigenvalues --    2.11796   2.12830   2.13836   2.15064   2.15790
 Alpha virt. eigenvalues --    2.16368   2.17086   2.17879   2.18972   2.19606
 Alpha virt. eigenvalues --    2.22276   2.22875   2.23551   2.25268   2.25635
 Alpha virt. eigenvalues --    2.26168   2.26839   2.27269   2.29533   2.30010
 Alpha virt. eigenvalues --    2.30683   2.32120   2.32771   2.34433   2.36837
 Alpha virt. eigenvalues --    2.37132   2.38001   2.39944   2.41573   2.43718
 Alpha virt. eigenvalues --    2.44111   2.45316   2.46344   2.46551   2.49486
 Alpha virt. eigenvalues --    2.50301   2.52566   2.53531   2.54515   2.55735
 Alpha virt. eigenvalues --    2.55956   2.56552   2.57843   2.58499   2.58986
 Alpha virt. eigenvalues --    2.59872   2.60989   2.61765   2.62316   2.63093
 Alpha virt. eigenvalues --    2.63281   2.64255   2.64376   2.64465   2.65150
 Alpha virt. eigenvalues --    2.65516   2.65728   2.66312   2.67292   2.67694
 Alpha virt. eigenvalues --    2.68405   2.69206   2.69622   2.70548   2.71439
 Alpha virt. eigenvalues --    2.72673   2.72904   2.73583   2.74295   2.74993
 Alpha virt. eigenvalues --    2.75377   2.76965   2.78444   2.79560   2.80716
 Alpha virt. eigenvalues --    2.80858   2.82059   2.83374   2.85145   2.85943
 Alpha virt. eigenvalues --    2.86255   2.87220   2.87908   2.88428   2.89766
 Alpha virt. eigenvalues --    2.90600   2.90733   2.91370   2.92191   2.92407
 Alpha virt. eigenvalues --    2.93916   2.95053   2.95734   2.96632   2.98149
 Alpha virt. eigenvalues --    2.98225   2.99566   3.01364   3.03597   3.04333
 Alpha virt. eigenvalues --    3.05608   3.07434   3.08739   3.09308   3.10134
 Alpha virt. eigenvalues --    3.12070   3.14294   3.15293   3.17753   3.19213
 Alpha virt. eigenvalues --    3.20185   3.21758   3.22833   3.23853   3.25039
 Alpha virt. eigenvalues --    3.25097   3.29702   3.30240   3.31509   3.36348
 Alpha virt. eigenvalues --    3.37914   3.38956   3.42709   3.45215   3.45381
 Alpha virt. eigenvalues --    3.51975   3.53433   3.58391   3.61412   3.63404
 Alpha virt. eigenvalues --    3.65159   3.70130   3.79315   3.81882   3.83547
 Alpha virt. eigenvalues --    3.87130   3.87691   3.88298   3.89103   3.89960
 Alpha virt. eigenvalues --    3.90294   3.90337   3.91623   3.91755   3.93271
 Alpha virt. eigenvalues --    3.93470   3.93711   3.94475   3.95188   3.95806
 Alpha virt. eigenvalues --    3.97089   4.00940   4.07421   4.10231   4.13857
 Alpha virt. eigenvalues --    4.16189   4.17065   4.22065   4.33121   4.38084
 Alpha virt. eigenvalues --    4.38186   4.40593   4.41670   4.42483   4.57490
 Alpha virt. eigenvalues --    4.96849   5.11800   5.31878  14.86417  23.77787
 Alpha virt. eigenvalues --   23.93586  23.98645  24.02947  24.07726  24.10105
 Alpha virt. eigenvalues --   24.11416  24.11682  24.13017  24.13450  24.14533
 Alpha virt. eigenvalues --   24.15886  24.17144  24.18052  24.22545  24.26399
 Alpha virt. eigenvalues --   24.32208  24.34480  35.77349
          Condensed to atoms (all electrons):
               1          2          3          4          5          6
     1  C   14.202744   0.878385  -2.393368  -0.274583  -0.418135  -0.111813
     2  C    0.878385   7.208802  -0.481529  -0.187415   0.006807  -0.471676
     3  C   -2.393368  -0.481529  10.648401   0.865328  -2.731554  -0.103354
     4  C   -0.274583  -0.187415   0.865328   6.804603  -0.012495  -0.466523
     5  C   -0.418135   0.006807  -2.731554  -0.012495   9.921929  -0.345515
     6  C   -0.111813  -0.471676  -0.103354  -0.466523  -0.345515   8.909403
     7  C   -0.021197  -0.475415  -0.360917  -0.093262  -0.748199   1.482154
     8  C   -3.675401   0.096929   0.849478   0.125104   1.544734  -2.032971
     9  H   -0.045561   0.010977   0.024742   0.385838  -0.102597   0.035822
    10  H   -0.003035   0.005540   0.034457   0.013132  -0.038783   0.370831
    11  H    0.005695   0.023091   0.007738  -0.007750  -0.008353  -0.012703
    12  N   -0.344853  -0.358699   0.497920  -0.291529  -0.155940   0.035442
    13  H   -0.195719   0.277721   0.142488   0.008115   0.013819  -0.038606
    14  B   -0.689092  -0.194652  -0.198375  -0.085983  -0.173245   0.044710
    15  C    0.155154  -0.028919  -0.418619  -0.135731  -0.491984   0.111828
    16  H   -0.000511   0.000091  -0.068149   0.077817   0.044521  -0.000948
    17  H    0.200729  -0.005616  -0.214221  -0.043108  -0.079612   0.019898
    18  H   -0.004834  -0.005972  -0.054378  -0.002931   0.009602   0.000321
    19  C   -0.086737  -0.097837   0.083145   0.105222  -0.589803  -0.912067
    20  H    0.000611   0.001358  -0.024312  -0.040759   0.014465   0.003866
    21  H    0.003132  -0.001981   0.023255   0.131351  -0.134138  -0.041572
    22  H    0.000295   0.000561  -0.031687  -0.072207   0.029777   0.021644
    23  C   -1.288402   0.162697  -0.119165  -0.040659  -0.036057   0.022374
    24  C   -1.457035   0.270708  -0.569494   0.011143  -0.015018   0.016636
    25  C    0.144526  -0.108532  -0.047582   0.012051  -0.011437  -0.001366
    26  H   -0.026427   0.001066   0.006891   0.001573   0.001943  -0.001279
    27  H   -0.022761  -0.005858  -0.009421  -0.004242  -0.003870   0.001256
    28  H    0.069331  -0.000040  -0.049779   0.004288   0.002003   0.003147
    29  C    0.607801   0.003411   0.012254  -0.006656  -0.001018   0.003297
    30  H    0.003761   0.004052  -0.001674   0.000860   0.000403  -0.000514
    31  H    0.018007  -0.006070   0.000565   0.000092  -0.000014   0.000251
    32  H    0.029747   0.022294  -0.021177   0.000021  -0.001676   0.003353
    33  C    0.133845   0.104904  -0.178885   0.019483   0.001888   0.000733
    34  H   -0.027046   0.006171  -0.007119   0.000822   0.000166  -0.000018
    35  H    0.009787  -0.001541   0.008741  -0.000057   0.000588  -0.000381
    36  H    0.009171  -0.001496  -0.004258  -0.000568  -0.000423   0.000125
    37  C   -0.166712   0.021990  -0.034860  -0.003728  -0.002187   0.001041
    38  H    0.052804  -0.005988   0.001939   0.000767   0.000326   0.000127
    39  H   -0.032587   0.002984  -0.003102  -0.000491  -0.000566   0.000387
    40  H    0.005226  -0.003340   0.000841  -0.000163  -0.000105   0.000080
    41  C    1.067903  -0.040755   0.203507  -0.014688   0.006327  -0.003884
    42  H   -0.022944   0.081794   0.004334   0.003457   0.005912   0.000409
    43  H    0.034724  -0.006332  -0.005001  -0.000491  -0.000268   0.000133
    44  H   -0.042119   0.005653   0.021057  -0.000601   0.000732  -0.000505
    45  C    0.033946  -0.053629   0.420361   0.036125   0.045979  -0.011489
    46  H    0.003629  -0.018340   0.057916  -0.007895   0.018463  -0.010035
    47  H    0.038136   0.013547   0.016439   0.001808   0.002682   0.000082
    48  H   -0.003699  -0.002519   0.008067   0.000460   0.000663  -0.000106
               7          8          9         10         11         12
     1  C   -0.021197  -3.675401  -0.045561  -0.003035   0.005695  -0.344853
     2  C   -0.475415   0.096929   0.010977   0.005540   0.023091  -0.358699
     3  C   -0.360917   0.849478   0.024742   0.034457   0.007738   0.497920
     4  C   -0.093262   0.125104   0.385838   0.013132  -0.007750  -0.291529
     5  C   -0.748199   1.544734  -0.102597  -0.038783  -0.008353  -0.155940
     6  C    1.482154  -2.032971   0.035822   0.370831  -0.012703   0.035442
     7  C    6.275311  -0.426105   0.014447  -0.041786   0.420031   0.004182
     8  C   -0.426105   9.585270   0.018475   0.015596  -0.092615  -0.219096
     9  H    0.014447   0.018475   0.546362  -0.000807   0.000606  -0.007125
    10  H   -0.041786   0.015596  -0.000807   0.469531  -0.009571   0.003461
    11  H    0.420031  -0.092615   0.000606  -0.009571   0.477682  -0.003716
    12  N    0.004182  -0.219096  -0.007125   0.003461  -0.003716   7.395863
    13  H   -0.060814   0.178896   0.001804   0.000986  -0.001332   0.059624
    14  B    0.043257  -1.041921  -0.013525   0.004949  -0.015023  -0.061568
    15  C    0.089500  -0.086295   0.023014   0.000236   0.001224   0.198429
    16  H   -0.004524   0.016291  -0.012225  -0.000038   0.000027  -0.044873
    17  H    0.026691  -0.049953   0.014772  -0.000245   0.000049  -0.118622
    18  H   -0.001062   0.003821  -0.011693   0.000067  -0.000067  -0.034228
    19  C   -0.010103   0.118788  -0.037052  -0.018349   0.003779  -0.014461
    20  H   -0.000667   0.008647  -0.000075  -0.001298   0.000112   0.000420
    21  H   -0.003815   0.004284  -0.008056   0.001845  -0.000122  -0.000699
    22  H    0.000904   0.007483  -0.000857  -0.002512   0.000432   0.000623
    23  C    0.058413   0.260846  -0.003080  -0.000111   0.002347  -0.039300
    24  C    0.085036   0.134214  -0.003787  -0.000282   0.001950  -0.273447
    25  C   -0.017432  -0.092972   0.005827   0.000060   0.000055   0.159472
    26  H   -0.002473  -0.000987  -0.000125  -0.000018   0.000057   0.005905
    27  H    0.003413   0.011942   0.000505   0.000091  -0.000187   0.025487
    28  H    0.008060  -0.011704   0.000740  -0.000158   0.000060  -0.032691
    29  C    0.017017   0.026142   0.000640   0.000090  -0.001281  -0.017959
    30  H   -0.001689  -0.002411   0.000128   0.000005  -0.000086  -0.001173
    31  H    0.000649  -0.000425  -0.000006   0.000004  -0.000040  -0.002070
    32  H    0.012221   0.003666  -0.000007  -0.000078   0.000464  -0.012231
    33  C    0.006611   0.047198   0.001110  -0.000066   0.000288  -0.119022
    34  H    0.000299   0.000099  -0.000038  -0.000004   0.000014  -0.003827
    35  H   -0.001024  -0.001119   0.000022   0.000007  -0.000010   0.007155
    36  H    0.000389  -0.000485   0.000096   0.000000  -0.000004   0.001440
    37  C    0.004355  -0.003954  -0.000487   0.000011  -0.000246  -0.024146
    38  H   -0.000131   0.000346   0.000076   0.000002  -0.000029  -0.001630
    39  H    0.001174   0.001406   0.000009   0.000006  -0.000013   0.001584
    40  H    0.000248   0.000804  -0.000010   0.000000   0.000001   0.002081
    41  C   -0.010863   0.026838   0.000422   0.000001  -0.001033   0.027808
    42  H    0.002639   0.042279  -0.000794  -0.000160   0.000559  -0.014199
    43  H    0.000945  -0.007961  -0.000009  -0.000004  -0.000037  -0.002441
    44  H   -0.002296   0.012003  -0.000045   0.000005   0.000024   0.004597
    45  C   -0.053631   0.090230   0.001129   0.000197   0.000078   0.229162
    46  H   -0.015195   0.010810  -0.000495  -0.000314   0.000463   0.016098
    47  H   -0.000553   0.014162   0.000213   0.000005  -0.000078  -0.004313
    48  H   -0.000863   0.002025   0.000089   0.000014   0.000034   0.007363
              13         14         15         16         17         18
     1  C   -0.195719  -0.689092   0.155154  -0.000511   0.200729  -0.004834
     2  C    0.277721  -0.194652  -0.028919   0.000091  -0.005616  -0.005972
     3  C    0.142488  -0.198375  -0.418619  -0.068149  -0.214221  -0.054378
     4  C    0.008115  -0.085983  -0.135731   0.077817  -0.043108  -0.002931
     5  C    0.013819  -0.173245  -0.491984   0.044521  -0.079612   0.009602
     6  C   -0.038606   0.044710   0.111828  -0.000948   0.019898   0.000321
     7  C   -0.060814   0.043257   0.089500  -0.004524   0.026691  -0.001062
     8  C    0.178896  -1.041921  -0.086295   0.016291  -0.049953   0.003821
     9  H    0.001804  -0.013525   0.023014  -0.012225   0.014772  -0.011693
    10  H    0.000986   0.004949   0.000236  -0.000038  -0.000245   0.000067
    11  H   -0.001332  -0.015023   0.001224   0.000027   0.000049  -0.000067
    12  N    0.059624  -0.061568   0.198429  -0.044873  -0.118622  -0.034228
    13  H    0.535862  -0.115735  -0.014243   0.000292  -0.010716  -0.000191
    14  B   -0.115735  15.827481  -0.562005   0.005455  -0.308421   0.009990
    15  C   -0.014243  -0.562005   6.069248   0.381925   0.560410   0.429767
    16  H    0.000292   0.005455   0.381925   0.483779  -0.046321  -0.015506
    17  H   -0.010716  -0.308421   0.560410  -0.046321   0.795335  -0.033514
    18  H   -0.000191   0.009990   0.429767  -0.015506  -0.033514   0.454582
    19  C    0.004600  -0.037030  -0.048046   0.007214  -0.009657   0.004258
    20  H    0.000012  -0.000848  -0.000032   0.000036   0.000009  -0.000013
    21  H   -0.000172   0.001703  -0.000412   0.000966  -0.000461   0.000292
    22  H   -0.000042   0.000183  -0.000814   0.000019  -0.000036  -0.000015
    23  C   -0.049337   2.122773   0.175113  -0.007846   0.094067  -0.010651
    24  C   -0.089049   1.247047   0.176423  -0.014187   0.085744   0.021047
    25  C    0.016793  -0.507547   0.016555   0.005994   0.024693   0.000863
    26  H    0.000470   0.236406  -0.004362   0.002296  -0.005683   0.000091
    27  H    0.000698  -0.195734  -0.003310  -0.019319  -0.011013   0.002596
    28  H   -0.004501  -0.241304   0.032609  -0.000215   0.015262   0.000234
    29  C    0.023112  -3.350444  -0.071047  -0.012753  -0.037101  -0.002354
    30  H    0.004198  -0.112379  -0.002647  -0.000375   0.000454  -0.000030
    31  H   -0.000780   0.049886  -0.002136  -0.000221  -0.002259   0.000006
    32  H   -0.012775  -0.325420   0.003471  -0.001484   0.007406  -0.000279
    33  C   -0.012270  -2.003660   0.073845  -0.015521   0.119788   0.006629
    34  H   -0.000881   0.051833   0.001977   0.000920   0.005296  -0.000007
    35  H    0.001320  -0.065204  -0.016065  -0.000567  -0.043516   0.001069
    36  H   -0.000057  -0.032447   0.005085  -0.001078   0.004115  -0.000208
    37  C   -0.007449  -0.155595  -0.000260   0.000032   0.008865  -0.001331
    38  H    0.000019  -0.203978  -0.000891  -0.000370   0.001565   0.000282
    39  H   -0.000020   0.010426  -0.002379  -0.000423   0.001784  -0.000156
    40  H   -0.000434   0.085096   0.001875   0.000181  -0.001475  -0.000329
    41  C    0.048765  -2.358508  -0.024529   0.003867  -0.032607  -0.006813
    42  H   -0.006029  -0.161135   0.004845   0.001582  -0.001674  -0.000418
    43  H   -0.001085   0.040942   0.000435  -0.000010  -0.000001  -0.000168
    44  H    0.004541  -0.040549  -0.008886   0.000069  -0.004702  -0.000092
    45  C    0.050639  -0.907656  -0.156706   0.017715  -0.091351  -0.004992
    46  H    0.004455  -0.204971   0.036181   0.003614   0.002605  -0.001010
    47  H    0.002127  -0.209293   0.018854   0.002464  -0.015830  -0.000899
    48  H   -0.000244   0.065710  -0.009022   0.000059  -0.003082  -0.000576
              19         20         21         22         23         24
     1  C   -0.086737   0.000611   0.003132   0.000295  -1.288402  -1.457035
     2  C   -0.097837   0.001358  -0.001981   0.000561   0.162697   0.270708
     3  C    0.083145  -0.024312   0.023255  -0.031687  -0.119165  -0.569494
     4  C    0.105222  -0.040759   0.131351  -0.072207  -0.040659   0.011143
     5  C   -0.589803   0.014465  -0.134138   0.029777  -0.036057  -0.015018
     6  C   -0.912067   0.003866  -0.041572   0.021644   0.022374   0.016636
     7  C   -0.010103  -0.000667  -0.003815   0.000904   0.058413   0.085036
     8  C    0.118788   0.008647   0.004284   0.007483   0.260846   0.134214
     9  H   -0.037052  -0.000075  -0.008056  -0.000857  -0.003080  -0.003787
    10  H   -0.018349  -0.001298   0.001845  -0.002512  -0.000111  -0.000282
    11  H    0.003779   0.000112  -0.000122   0.000432   0.002347   0.001950
    12  N   -0.014461   0.000420  -0.000699   0.000623  -0.039300  -0.273447
    13  H    0.004600   0.000012  -0.000172  -0.000042  -0.049337  -0.089049
    14  B   -0.037030  -0.000848   0.001703   0.000183   2.122773   1.247047
    15  C   -0.048046  -0.000032  -0.000412  -0.000814   0.175113   0.176423
    16  H    0.007214   0.000036   0.000966   0.000019  -0.007846  -0.014187
    17  H   -0.009657   0.000009  -0.000461  -0.000036   0.094067   0.085744
    18  H    0.004258  -0.000013   0.000292  -0.000015  -0.010651   0.021047
    19  C    6.799860   0.388468   0.367977   0.395872   0.000677   0.001635
    20  H    0.388468   0.538946  -0.018963  -0.053423  -0.000026   0.000006
    21  H    0.367977  -0.018963   0.519312  -0.016802   0.000051   0.000155
    22  H    0.395872  -0.053423  -0.016802   0.540909  -0.000001  -0.000014
    23  C    0.000677  -0.000026   0.000051  -0.000001   7.639124  -0.025073
    24  C    0.001635   0.000006   0.000155  -0.000014  -0.025073   8.077994
    25  C   -0.000445   0.000005  -0.000230   0.000039  -0.062269  -0.082673
    26  H    0.000332   0.000000  -0.000003   0.000004   0.034580  -0.003531
    27  H   -0.000893  -0.000008  -0.000045  -0.000011  -0.017663   0.035886
    28  H    0.000193   0.000059  -0.000030  -0.000016  -0.000548   0.050056
    29  C   -0.000487  -0.000011   0.000012  -0.000006  -1.841545   0.340017
    30  H   -0.000016   0.000001  -0.000001  -0.000000  -0.056077   0.056907
    31  H   -0.000014  -0.000001   0.000002  -0.000000  -0.044819  -0.007223
    32  H   -0.000131  -0.000007   0.000005   0.000003  -0.161330   0.039382
    33  C    0.000018  -0.000003  -0.000007   0.000007  -0.678904   0.547120
    34  H    0.000018   0.000000   0.000001   0.000000   0.024957  -0.040083
    35  H    0.000018  -0.000001  -0.000008   0.000001  -0.004382   0.002690
    36  H   -0.000034   0.000000  -0.000002  -0.000000  -0.060432   0.015070
    37  C   -0.000099  -0.000002   0.000010  -0.000000   0.132351   0.228740
    38  H   -0.000020  -0.000000   0.000001   0.000000  -0.107197   0.019145
    39  H   -0.000025  -0.000001   0.000001  -0.000000   0.096826   0.018834
    40  H   -0.000005  -0.000000   0.000000   0.000000   0.009728  -0.022269
    41  C    0.000031  -0.000003  -0.000028   0.000013  -0.178188  -1.512889
    42  H    0.000427   0.000028   0.000022  -0.000038   0.058865  -0.087357
    43  H   -0.000001   0.000001   0.000001  -0.000001  -0.000666   0.010092
    44  H    0.000021  -0.000003   0.000001   0.000003  -0.002172  -0.027194
    45  C    0.002344  -0.000001  -0.000060   0.000005   0.034636  -1.095217
    46  H    0.003104   0.000034  -0.000022   0.000023   0.034207  -0.099001
    47  H   -0.000237   0.000004  -0.000005  -0.000011   0.000167  -0.062814
    48  H    0.000047  -0.000001  -0.000004   0.000002   0.006595  -0.018354
              25         26         27         28         29         30
     1  C    0.144526  -0.026427  -0.022761   0.069331   0.607801   0.003761
     2  C   -0.108532   0.001066  -0.005858  -0.000040   0.003411   0.004052
     3  C   -0.047582   0.006891  -0.009421  -0.049779   0.012254  -0.001674
     4  C    0.012051   0.001573  -0.004242   0.004288  -0.006656   0.000860
     5  C   -0.011437   0.001943  -0.003870   0.002003  -0.001018   0.000403
     6  C   -0.001366  -0.001279   0.001256   0.003147   0.003297  -0.000514
     7  C   -0.017432  -0.002473   0.003413   0.008060   0.017017  -0.001689
     8  C   -0.092972  -0.000987   0.011942  -0.011704   0.026142  -0.002411
     9  H    0.005827  -0.000125   0.000505   0.000740   0.000640   0.000128
    10  H    0.000060  -0.000018   0.000091  -0.000158   0.000090   0.000005
    11  H    0.000055   0.000057  -0.000187   0.000060  -0.001281  -0.000086
    12  N    0.159472   0.005905   0.025487  -0.032691  -0.017959  -0.001173
    13  H    0.016793   0.000470   0.000698  -0.004501   0.023112   0.004198
    14  B   -0.507547   0.236406  -0.195734  -0.241304  -3.350444  -0.112379
    15  C    0.016555  -0.004362  -0.003310   0.032609  -0.071047  -0.002647
    16  H    0.005994   0.002296  -0.019319  -0.000215  -0.012753  -0.000375
    17  H    0.024693  -0.005683  -0.011013   0.015262  -0.037101   0.000454
    18  H    0.000863   0.000091   0.002596   0.000234  -0.002354  -0.000030
    19  C   -0.000445   0.000332  -0.000893   0.000193  -0.000487  -0.000016
    20  H    0.000005   0.000000  -0.000008   0.000059  -0.000011   0.000001
    21  H   -0.000230  -0.000003  -0.000045  -0.000030   0.000012  -0.000001
    22  H    0.000039   0.000004  -0.000011  -0.000016  -0.000006  -0.000000
    23  C   -0.062269   0.034580  -0.017663  -0.000548  -1.841545  -0.056077
    24  C   -0.082673  -0.003531   0.035886   0.050056   0.340017   0.056907
    25  C    6.383061   0.392691   0.314908   0.388382  -0.190955   0.059853
    26  H    0.392691   0.537555  -0.048881  -0.048289  -0.146153   0.003847
    27  H    0.314908  -0.048881   0.583325  -0.012758   0.179844  -0.002057
    28  H    0.388382  -0.048289  -0.012758   0.549714  -0.008401   0.002014
    29  C   -0.190955  -0.146153   0.179844  -0.008401   9.173624   0.350689
    30  H    0.059853   0.003847  -0.002057   0.002014   0.350689   0.553913
    31  H   -0.057000  -0.002234   0.007468  -0.003294   0.459571  -0.039534
    32  H   -0.001484  -0.015747   0.012102   0.010327   0.654215  -0.017774
    33  C   -0.186953  -0.107667   0.040753   0.126309   0.406981   0.073888
    34  H    0.039505   0.005987  -0.005549  -0.003645  -0.063734   0.002645
    35  H   -0.022928  -0.009275   0.013523   0.000283   0.102260   0.005182
    36  H   -0.049171  -0.002820   0.006194   0.005565   0.024934   0.002434
    37  C   -0.048611  -0.000447   0.007579  -0.007426   0.049055  -0.013290
    38  H   -0.009382  -0.000682   0.000310   0.000029   0.055603   0.004281
    39  H   -0.000910  -0.001419   0.001272   0.000040  -0.043730  -0.022117
    40  H   -0.000470   0.000225  -0.000271  -0.000519  -0.001280  -0.003660
    41  C   -0.016352   0.004352  -0.014885  -0.027019   0.154267  -0.013034
    42  H   -0.005143   0.001153  -0.002367  -0.001289  -0.062568  -0.005976
    43  H    0.001343  -0.000075   0.000269   0.000447   0.009291   0.001556
    44  H   -0.007975  -0.000207  -0.000967  -0.003761   0.021404  -0.021421
    45  C   -0.018163   0.004619  -0.029408  -0.016188  -0.247253  -0.010835
    46  H   -0.006296   0.001402  -0.005197  -0.001941  -0.040706  -0.001879
    47  H    0.000303   0.000820  -0.002581  -0.001940  -0.005980   0.001567
    48  H   -0.000954  -0.000136  -0.000155  -0.000001  -0.002212  -0.001635
              31         32         33         34         35         36
     1  C    0.018007   0.029747   0.133845  -0.027046   0.009787   0.009171
     2  C   -0.006070   0.022294   0.104904   0.006171  -0.001541  -0.001496
     3  C    0.000565  -0.021177  -0.178885  -0.007119   0.008741  -0.004258
     4  C    0.000092   0.000021   0.019483   0.000822  -0.000057  -0.000568
     5  C   -0.000014  -0.001676   0.001888   0.000166   0.000588  -0.000423
     6  C    0.000251   0.003353   0.000733  -0.000018  -0.000381   0.000125
     7  C    0.000649   0.012221   0.006611   0.000299  -0.001024   0.000389
     8  C   -0.000425   0.003666   0.047198   0.000099  -0.001119  -0.000485
     9  H   -0.000006  -0.000007   0.001110  -0.000038   0.000022   0.000096
    10  H    0.000004  -0.000078  -0.000066  -0.000004   0.000007   0.000000
    11  H   -0.000040   0.000464   0.000288   0.000014  -0.000010  -0.000004
    12  N   -0.002070  -0.012231  -0.119022  -0.003827   0.007155   0.001440
    13  H   -0.000780  -0.012775  -0.012270  -0.000881   0.001320  -0.000057
    14  B    0.049886  -0.325420  -2.003660   0.051833  -0.065204  -0.032447
    15  C   -0.002136   0.003471   0.073845   0.001977  -0.016065   0.005085
    16  H   -0.000221  -0.001484  -0.015521   0.000920  -0.000567  -0.001078
    17  H   -0.002259   0.007406   0.119788   0.005296  -0.043516   0.004115
    18  H    0.000006  -0.000279   0.006629  -0.000007   0.001069  -0.000208
    19  C   -0.000014  -0.000131   0.000018   0.000018   0.000018  -0.000034
    20  H   -0.000001  -0.000007  -0.000003   0.000000  -0.000001   0.000000
    21  H    0.000002   0.000005  -0.000007   0.000001  -0.000008  -0.000002
    22  H   -0.000000   0.000003   0.000007   0.000000   0.000001  -0.000000
    23  C   -0.044819  -0.161330  -0.678904   0.024957  -0.004382  -0.060432
    24  C   -0.007223   0.039382   0.547120  -0.040083   0.002690   0.015070
    25  C   -0.057000  -0.001484  -0.186953   0.039505  -0.022928  -0.049171
    26  H   -0.002234  -0.015747  -0.107667   0.005987  -0.009275  -0.002820
    27  H    0.007468   0.012102   0.040753  -0.005549   0.013523   0.006194
    28  H   -0.003294   0.010327   0.126309  -0.003645   0.000283   0.005565
    29  C    0.459571   0.654215   0.406981  -0.063734   0.102260   0.024934
    30  H   -0.039534  -0.017774   0.073888   0.002645   0.005182   0.002434
    31  H    0.502014  -0.019534  -0.053576  -0.000399   0.002071  -0.000940
    32  H   -0.019534   0.521788   0.083020   0.001015  -0.001332   0.004119
    33  C   -0.053576   0.083020   7.320110   0.355906   0.362441   0.445780
    34  H   -0.000399   0.001015   0.355906   0.574806  -0.041345  -0.040174
    35  H    0.002071  -0.001332   0.362441  -0.041345   0.550511  -0.028219
    36  H   -0.000940   0.004119   0.445780  -0.040174  -0.028219   0.540529
    37  C    0.007287   0.005139  -0.096659   0.039954  -0.008356   0.003760
    38  H    0.000519   0.003256   0.079700   0.001157  -0.000605   0.000802
    39  H   -0.001656  -0.002371  -0.046653  -0.008724   0.003853  -0.002558
    40  H    0.000081  -0.000068  -0.011395   0.001417  -0.001045   0.000088
    41  C    0.002206   0.001868  -0.142370  -0.006876  -0.004261  -0.004863
    42  H   -0.000365  -0.003005  -0.029135   0.000304  -0.002331  -0.000474
    43  H   -0.000025   0.000474  -0.001467  -0.001008   0.000408   0.000126
    44  H   -0.001650  -0.000822  -0.014172  -0.001997   0.001053  -0.001306
    45  C   -0.001987  -0.037708  -0.197047  -0.003369  -0.000995  -0.005952
    46  H   -0.000316  -0.004931  -0.022396   0.000083  -0.001652  -0.000612
    47  H   -0.000100  -0.000997  -0.019891   0.000140  -0.002377  -0.000511
    48  H    0.000179  -0.000039  -0.001507  -0.001055   0.000049  -0.000086
              37         38         39         40         41         42
     1  C   -0.166712   0.052804  -0.032587   0.005226   1.067903  -0.022944
     2  C    0.021990  -0.005988   0.002984  -0.003340  -0.040755   0.081794
     3  C   -0.034860   0.001939  -0.003102   0.000841   0.203507   0.004334
     4  C   -0.003728   0.000767  -0.000491  -0.000163  -0.014688   0.003457
     5  C   -0.002187   0.000326  -0.000566  -0.000105   0.006327   0.005912
     6  C    0.001041   0.000127   0.000387   0.000080  -0.003884   0.000409
     7  C    0.004355  -0.000131   0.001174   0.000248  -0.010863   0.002639
     8  C   -0.003954   0.000346   0.001406   0.000804   0.026838   0.042279
     9  H   -0.000487   0.000076   0.000009  -0.000010   0.000422  -0.000794
    10  H    0.000011   0.000002   0.000006   0.000000   0.000001  -0.000160
    11  H   -0.000246  -0.000029  -0.000013   0.000001  -0.001033   0.000559
    12  N   -0.024146  -0.001630   0.001584   0.002081   0.027808  -0.014199
    13  H   -0.007449   0.000019  -0.000020  -0.000434   0.048765  -0.006029
    14  B   -0.155595  -0.203978   0.010426   0.085096  -2.358508  -0.161135
    15  C   -0.000260  -0.000891  -0.002379   0.001875  -0.024529   0.004845
    16  H    0.000032  -0.000370  -0.000423   0.000181   0.003867   0.001582
    17  H    0.008865   0.001565   0.001784  -0.001475  -0.032607  -0.001674
    18  H   -0.001331   0.000282  -0.000156  -0.000329  -0.006813  -0.000418
    19  C   -0.000099  -0.000020  -0.000025  -0.000005   0.000031   0.000427
    20  H   -0.000002  -0.000000  -0.000001  -0.000000  -0.000003   0.000028
    21  H    0.000010   0.000001   0.000001   0.000000  -0.000028   0.000022
    22  H   -0.000000   0.000000  -0.000000   0.000000   0.000013  -0.000038
    23  C    0.132351  -0.107197   0.096826   0.009728  -0.178188   0.058865
    24  C    0.228740   0.019145   0.018834  -0.022269  -1.512889  -0.087357
    25  C   -0.048611  -0.009382  -0.000910  -0.000470  -0.016352  -0.005143
    26  H   -0.000447  -0.000682  -0.001419   0.000225   0.004352   0.001153
    27  H    0.007579   0.000310   0.001272  -0.000271  -0.014885  -0.002367
    28  H   -0.007426   0.000029   0.000040  -0.000519  -0.027019  -0.001289
    29  C    0.049055   0.055603  -0.043730  -0.001280   0.154267  -0.062568
    30  H   -0.013290   0.004281  -0.022117  -0.003660  -0.013034  -0.005976
    31  H    0.007287   0.000519  -0.001656   0.000081   0.002206  -0.000365
    32  H    0.005139   0.003256  -0.002371  -0.000068   0.001868  -0.003005
    33  C   -0.096659   0.079700  -0.046653  -0.011395  -0.142370  -0.029135
    34  H    0.039954   0.001157  -0.008724   0.001417  -0.006876   0.000304
    35  H   -0.008356  -0.000605   0.003853  -0.001045  -0.004261  -0.002331
    36  H    0.003760   0.000802  -0.002558   0.000088  -0.004863  -0.000474
    37  C    6.069699   0.378477   0.341923   0.374129  -0.270205   0.019598
    38  H    0.378477   0.560748  -0.032136  -0.032350   0.075504  -0.007685
    39  H    0.341923  -0.032136   0.593859  -0.041542  -0.043210  -0.000108
    40  H    0.374129  -0.032350  -0.041542   0.538781  -0.021684   0.005527
    41  C   -0.270205   0.075504  -0.043210  -0.021684   7.925581   0.446276
    42  H    0.019598  -0.007685  -0.000108   0.005527   0.446276   0.566150
    43  H   -0.064313   0.000959   0.001260   0.000552   0.408090  -0.022285
    44  H    0.015531   0.001523   0.005471  -0.006030   0.380316  -0.022268
    45  C   -0.312627  -0.013520   0.040213  -0.057910   0.459431   0.031170
    46  H    0.017479  -0.001637  -0.005766   0.004265   0.047493   0.006115
    47  H    0.009614   0.010066  -0.001936   0.000999   0.119458   0.008804
    48  H   -0.065379  -0.003317   0.006094   0.004389  -0.032687  -0.005634
              43         44         45         46         47         48
     1  C    0.034724  -0.042119   0.033946   0.003629   0.038136  -0.003699
     2  C   -0.006332   0.005653  -0.053629  -0.018340   0.013547  -0.002519
     3  C   -0.005001   0.021057   0.420361   0.057916   0.016439   0.008067
     4  C   -0.000491  -0.000601   0.036125  -0.007895   0.001808   0.000460
     5  C   -0.000268   0.000732   0.045979   0.018463   0.002682   0.000663
     6  C    0.000133  -0.000505  -0.011489  -0.010035   0.000082  -0.000106
     7  C    0.000945  -0.002296  -0.053631  -0.015195  -0.000553  -0.000863
     8  C   -0.007961   0.012003   0.090230   0.010810   0.014162   0.002025
     9  H   -0.000009  -0.000045   0.001129  -0.000495   0.000213   0.000089
    10  H   -0.000004   0.000005   0.000197  -0.000314   0.000005   0.000014
    11  H   -0.000037   0.000024   0.000078   0.000463  -0.000078   0.000034
    12  N   -0.002441   0.004597   0.229162   0.016098  -0.004313   0.007363
    13  H   -0.001085   0.004541   0.050639   0.004455   0.002127  -0.000244
    14  B    0.040942  -0.040549  -0.907656  -0.204971  -0.209293   0.065710
    15  C    0.000435  -0.008886  -0.156706   0.036181   0.018854  -0.009022
    16  H   -0.000010   0.000069   0.017715   0.003614   0.002464   0.000059
    17  H   -0.000001  -0.004702  -0.091351   0.002605  -0.015830  -0.003082
    18  H   -0.000168  -0.000092  -0.004992  -0.001010  -0.000899  -0.000576
    19  C   -0.000001   0.000021   0.002344   0.003104  -0.000237   0.000047
    20  H    0.000001  -0.000003  -0.000001   0.000034   0.000004  -0.000001
    21  H    0.000001   0.000001  -0.000060  -0.000022  -0.000005  -0.000004
    22  H   -0.000001   0.000003   0.000005   0.000023  -0.000011   0.000002
    23  C   -0.000666  -0.002172   0.034636   0.034207   0.000167   0.006595
    24  C    0.010092  -0.027194  -1.095217  -0.099001  -0.062814  -0.018354
    25  C    0.001343  -0.007975  -0.018163  -0.006296   0.000303  -0.000954
    26  H   -0.000075  -0.000207   0.004619   0.001402   0.000820  -0.000136
    27  H    0.000269  -0.000967  -0.029408  -0.005197  -0.002581  -0.000155
    28  H    0.000447  -0.003761  -0.016188  -0.001941  -0.001940  -0.000001
    29  C    0.009291   0.021404  -0.247253  -0.040706  -0.005980  -0.002212
    30  H    0.001556  -0.021421  -0.010835  -0.001879   0.001567  -0.001635
    31  H   -0.000025  -0.001650  -0.001987  -0.000316  -0.000100   0.000179
    32  H    0.000474  -0.000822  -0.037708  -0.004931  -0.000997  -0.000039
    33  C   -0.001467  -0.014172  -0.197047  -0.022396  -0.019891  -0.001507
    34  H   -0.001008  -0.001997  -0.003369   0.000083   0.000140  -0.001055
    35  H    0.000408   0.001053  -0.000995  -0.001652  -0.002377   0.000049
    36  H    0.000126  -0.001306  -0.005952  -0.000612  -0.000511  -0.000086
    37  C   -0.064313   0.015531  -0.312627   0.017479   0.009614  -0.065379
    38  H    0.000959   0.001523  -0.013520  -0.001637   0.010066  -0.003317
    39  H    0.001260   0.005471   0.040213  -0.005766  -0.001936   0.006094
    40  H    0.000552  -0.006030  -0.057910   0.004265   0.000999   0.004389
    41  C    0.408090   0.380316   0.459431   0.047493   0.119458  -0.032687
    42  H   -0.022285  -0.022268   0.031170   0.006115   0.008804  -0.005634
    43  H    0.524238  -0.036060  -0.059408  -0.002677   0.000583   0.002739
    44  H   -0.036060   0.521360   0.069246   0.002877  -0.002153   0.004860
    45  C   -0.059408   0.069246   7.159126   0.478058   0.397196   0.414596
    46  H   -0.002677   0.002877   0.478058   0.521051  -0.007139  -0.032988
    47  H    0.000583  -0.002153   0.397196  -0.007139   0.554436  -0.034198
    48  H    0.002739   0.004860   0.414596  -0.032988  -0.034198   0.498856
 Mulliken charges:
               1
     1  C   -0.354518
     2  C   -0.647383
     3  C    0.192116
     4  C   -0.814944
     5  C    0.429260
     6  C   -0.522022
     7  C   -0.203932
     8  C    0.487569
     9  H    0.160591
    10  H    0.196491
    11  H    0.207438
    12  N    0.519741
    13  H    0.241130
    14  B   -0.274600
    15  C   -0.478665
    16  H    0.210238
    17  H    0.181257
    18  H    0.249204
    19  C   -0.424501
    20  H    0.183369
    21  H    0.173263
    22  H    0.179690
    23  C   -0.135495
    24  C    0.012314
    25  C   -0.411746
    26  H    0.184656
    27  H    0.169994
    28  H    0.208304
    29  C   -0.519900
    30  H    0.199646
    31  H    0.197830
    32  H    0.223051
    33  C   -0.419126
    34  H    0.141406
    35  H    0.185568
    36  H    0.169358
    37  C   -0.448251
    38  H    0.171217
    39  H    0.165193
    40  H    0.169740
    41  C   -0.628087
    42  H    0.173135
    43  H    0.172189
    44  H    0.177604
    45  C   -0.629098
    46  H    0.222990
    47  H    0.159160
    48  H    0.197561
 Sum of Mulliken charges =  -0.00000
 Mulliken charges with hydrogens summed into heavy atoms:
               1
     1  C   -0.354518
     2  C   -0.406253
     3  C    0.192116
     4  C   -0.654353
     5  C    0.429260
     6  C   -0.325532
     7  C    0.003506
     8  C    0.487569
    12  N    0.519741
    14  B   -0.274600
    15  C    0.162034
    19  C    0.111820
    23  C   -0.135495
    24  C    0.012314
    25  C    0.151207
    29  C    0.100627
    33  C    0.077205
    37  C    0.057899
    41  C   -0.105159
    45  C   -0.049387
 Electronic spatial extent (au):  <R**2>=           7716.1171
 Charge=              0.0000 electrons
 Dipole moment (field-independent basis, Debye):
    X=              2.5415    Y=             -0.3199    Z=             -0.4412  Tot=              2.5993
 Quadrupole moment (field-independent basis, Debye-Ang):
   XX=           -128.2697   YY=           -118.0971   ZZ=           -129.6712
   XY=              1.2875   XZ=             -1.5559   YZ=             -1.4761
 Traceless Quadrupole moment (field-independent basis, Debye-Ang):
   XX=             -2.9237   YY=              7.2489   ZZ=             -4.3252
   XY=              1.2875   XZ=             -1.5559   YZ=             -1.4761
 Octapole moment (field-independent basis, Debye-Ang**2):
  XXX=            374.1452  YYY=            398.5088  ZZZ=             28.5674  XYY=            113.9373
  XXY=            136.6982  XXZ=             18.4103  XZZ=            143.4018  YZZ=            126.5617
  YYZ=             12.8286  XYZ=             -0.4108
 Hexadecapole moment (field-independent basis, Debye-Ang**3):
 XXXX=          -3744.6282 YYYY=          -5616.7543 ZZZZ=          -1385.7011 XXXY=            852.8983
 XXXZ=            -82.6691 YYYX=            842.8904 YYYZ=           -193.6020 ZZZX=            -15.8876
 ZZZY=           -179.8340 XXYY=          -1552.7366 XXZZ=           -926.3521 YYZZ=          -1173.5948
 XXYZ=            -65.6938 YYXZ=             -9.5156 ZZXY=            295.2677
 N-N= 1.595327826731D+03 E-N=-5.004031422501D+03  KE= 7.786298919358D+02
 Breneman (CHELPG) radii used.
 Generate Potential Derived Charges using the Breneman model, NDens= 1.
 Grid spacing= 0.300 Box extension= 2.800
 NStep X,Y,Z=   47     52     43   Total possible points=      105092
 Number of Points to Fit=   23051

 **********************************************************************

            Electrostatic Properties Using The SCF Density.

 **********************************************************************

       Atomic Center    1 is at  -1.148941 -1.392031 -0.129459
       Atomic Center    2 is at  -2.500015 -1.485057  0.096773
       Atomic Center    3 is at  -1.941185  0.717148 -0.078399
       Atomic Center    4 is at  -2.090590  2.105559 -0.133878
       Atomic Center    5 is at  -3.354938  2.640841  0.057465
       Atomic Center    6 is at  -4.446670  1.777424  0.293526
       Atomic Center    7 is at  -4.299171  0.404022  0.337101
       Atomic Center    8 is at  -3.027734 -0.152115  0.144317
       Atomic Center    9 is at  -1.240521  2.754581 -0.319319
       Atomic Center   10 is at  -5.430535  2.212573  0.441353
       Atomic Center   11 is at  -5.158479 -0.234197  0.514880
       Atomic Center   12 is at  -0.811443 -0.052031 -0.225259
       Atomic Center   13 is at  -3.052939 -2.400889  0.242198
       Atomic Center   14 is at  -0.036194 -2.516821 -0.152559
       Atomic Center   15 is at   0.492861  0.473702 -0.556984
       Atomic Center   16 is at   0.776253  1.262677  0.144390
       Atomic Center   17 is at   1.238015 -0.320755 -0.488192
       Atomic Center   18 is at   0.511877  0.877088 -1.574033
       Atomic Center   19 is at  -3.579159  4.131331  0.018781
       Atomic Center   20 is at  -3.970143  4.495259  0.973702
       Atomic Center   21 is at  -2.651543  4.668275 -0.190520
       Atomic Center   22 is at  -4.305513  4.400127 -0.753964
       Atomic Center   23 is at   0.768821 -2.737975  1.211101
       Atomic Center   24 is at   0.058513 -3.377817 -1.496520
       Atomic Center   25 is at   0.547242 -1.612449  2.237815
       Atomic Center   26 is at   0.992702 -1.891381  3.199773
       Atomic Center   27 is at   1.018113 -0.677097  1.920984
       Atomic Center   28 is at  -0.514237 -1.411221  2.400996
       Atomic Center   29 is at   0.113596 -4.024538  1.779744
       Atomic Center   30 is at   0.289398 -4.895946  1.144045
       Atomic Center   31 is at   0.537208 -4.239229  2.767588
       Atomic Center   32 is at  -0.968079 -3.906351  1.907882
       Atomic Center   33 is at   2.285461 -2.956370  1.075423
       Atomic Center   34 is at   2.536537 -3.862367  0.526237
       Atomic Center   35 is at   2.771079 -2.112321  0.573557
       Atomic Center   36 is at   2.733919 -3.041414  2.072165
       Atomic Center   37 is at   1.247700 -4.336387 -1.646605
       Atomic Center   38 is at   2.201483 -3.802775 -1.662229
       Atomic Center   39 is at   1.286923 -5.080362 -0.846816
       Atomic Center   40 is at   1.163188 -4.882535 -2.593608
       Atomic Center   41 is at  -1.242394 -4.213802 -1.573754
       Atomic Center   42 is at  -2.133595 -3.582829 -1.574752
       Atomic Center   43 is at  -1.243566 -4.792340 -2.504877
       Atomic Center   44 is at  -1.321193 -4.923988 -0.744515
       Atomic Center   45 is at   0.074786 -2.410060 -2.700316
       Atomic Center   46 is at  -0.797575 -1.751774 -2.702552
       Atomic Center   47 is at   0.973669 -1.783656 -2.702895
       Atomic Center   48 is at   0.072306 -2.980318 -3.636544
   23051 points will be used for fitting atomic charges
 Fitting point charges to electrostatic potential
 Charges from ESP fit, RMS=   0.00308 RRMS=   0.25724:
 ESP charges:
               1
     1  C    0.009403
     2  C   -0.386204
     3  C    0.109860
     4  C   -0.336770
     5  C    0.198076
     6  C   -0.259919
     7  C   -0.196460
     8  C    0.127918
     9  H    0.149796
    10  H    0.136497
    11  H    0.128109
    12  N   -0.052800
    13  H    0.171919
    14  B    0.288480
    15  C   -0.072931
    16  H    0.078393
    17  H    0.058380
    18  H    0.064682
    19  C   -0.256405
    20  H    0.071907
    21  H    0.076791
    22  H    0.070971
    23  C    0.269612
    24  C    0.280140
    25  C   -0.116785
    26  H    0.038467
    27  H   -0.001712
    28  H   -0.040940
    29  C   -0.182441
    30  H    0.036404
    31  H    0.049540
    32  H    0.021855
    33  C   -0.479719
    34  H    0.109293
    35  H    0.097617
    36  H    0.103869
    37  C   -0.513422
    38  H    0.102059
    39  H    0.114774
    40  H    0.110059
    41  C   -0.054971
    42  H   -0.033192
    43  H    0.014812
    44  H   -0.002531
    45  C   -0.126895
    46  H   -0.023770
    47  H    0.012274
    48  H    0.035911
 Sum of ESP charges =   0.00000
 ESP charges with hydrogens summed into heavy atoms:
               1
     1  C    0.009403
     2  C   -0.214286
     3  C    0.109860
     4  C   -0.186975
     5  C    0.198076
     6  C   -0.123422
     7  C   -0.068351
     8  C    0.127918
    12  N   -0.052800
    14  B    0.288480
    15  C    0.128525
    19  C   -0.036736
    23  C    0.269612
    24  C    0.280140
    25  C   -0.120971
    29  C   -0.074643
    33  C   -0.168940
    37  C   -0.186529
    41  C   -0.075881
    45  C   -0.102481
 Charge=   0.00000 Dipole=     2.5108    -0.3305    -0.4437 Tot=     2.5710
 -----------------------------------------------------------------

              Electrostatic Properties (Atomic Units)

 -----------------------------------------------------------------
    Center     Electric         -------- Electric Field --------
               Potential          X             Y             Z
 -----------------------------------------------------------------
    1 Atom    -14.768965
    2 Atom    -14.800216
    3 Atom    -14.758562
    4 Atom    -14.785792
    5 Atom    -14.778942
    6 Atom    -14.797893
    7 Atom    -14.790208
    8 Atom    -14.793446
    9 Atom     -1.105087
   10 Atom     -1.124915
   11 Atom     -1.120309
   12 Atom    -18.349885
   13 Atom     -1.112801
   14 Atom    -11.456159
   15 Atom    -14.723845
   16 Atom     -1.091840
   17 Atom     -1.080780
   18 Atom     -1.095098
   19 Atom    -14.785684
   20 Atom     -1.124045
   21 Atom     -1.123284
   22 Atom     -1.124072
   23 Atom    -14.771100
   24 Atom    -14.772057
   25 Atom    -14.793002
   26 Atom     -1.131935
   27 Atom     -1.128640
   28 Atom     -1.136476
   29 Atom    -14.776554
   30 Atom     -1.117542
   31 Atom     -1.117261
   32 Atom     -1.118239
   33 Atom    -14.782939
   34 Atom     -1.124152
   35 Atom     -1.119335
   36 Atom     -1.124811
   37 Atom    -14.786292
   38 Atom     -1.124527
   39 Atom     -1.123546
   40 Atom     -1.127522
   41 Atom    -14.783757
   42 Atom     -1.127687
   43 Atom     -1.123399
   44 Atom     -1.122626
   45 Atom    -14.784805
   46 Atom     -1.128747
   47 Atom     -1.121057
   48 Atom     -1.125455
 -----------------------------------------------------------------
 Unable to Open any file for archive entry.
 1\1\GINC-IRENE6016\SP\RwB97XD\GenECP\C18H28B1N1\PENASFRA\10-Apr-2024\0
 \\# wb97xd/genecp scrf=(solvent=toluene,pcm) nosymm pop=(chelpg) scfcy
 c=300\\tbu_indole_chelpg\\0,1\C,0,-1.148941,-1.392031,-0.129459\C,0,-2
 .500015,-1.485057,0.096773\C,0,-1.941185,0.717148,-0.078399\C,0,-2.090
 59,2.105559,-0.133878\C,0,-3.354938,2.640841,0.057465\C,0,-4.44667,1.7
 77424,0.293526\C,0,-4.299171,0.404022,0.337101\C,0,-3.027734,-0.152115
 ,0.144317\H,0,-1.240521,2.754581,-0.319319\H,0,-5.430535,2.212573,0.44
 1353\H,0,-5.158479,-0.234197,0.51488\N,0,-0.811443,-0.052031,-0.225259
 \H,0,-3.052939,-2.400889,0.242198\B,0,-0.036194,-2.516821,-0.152559\C,
 0,0.492861,0.473702,-0.556984\H,0,0.776253,1.262677,0.14439\H,0,1.2380
 15,-0.320755,-0.488192\H,0,0.511877,0.877088,-1.574033\C,0,-3.579159,4
 .131331,0.018781\H,0,-3.970143,4.495259,0.973702\H,0,-2.651543,4.66827
 5,-0.19052\H,0,-4.305513,4.400127,-0.753964\C,0,0.768821,-2.737975,1.2
 11101\C,0,0.058513,-3.377817,-1.49652\C,0,0.547242,-1.612449,2.237815\
 H,0,0.992702,-1.891381,3.199773\H,0,1.018113,-0.677097,1.920984\H,0,-0
 .514237,-1.411221,2.400996\C,0,0.113596,-4.024538,1.779744\H,0,0.28939
 8,-4.895946,1.144045\H,0,0.537208,-4.239229,2.767588\H,0,-0.968079,-3.
 906351,1.907882\C,0,2.285461,-2.95637,1.075423\H,0,2.536537,-3.862367,
 0.526237\H,0,2.771079,-2.112321,0.573557\H,0,2.733919,-3.041414,2.0721
 65\C,0,1.2477,-4.336387,-1.646605\H,0,2.201483,-3.802775,-1.662229\H,0
 ,1.286923,-5.080362,-0.846816\H,0,1.163188,-4.882535,-2.593608\C,0,-1.
 242394,-4.213802,-1.573754\H,0,-2.133595,-3.582829,-1.574752\H,0,-1.24
 3566,-4.79234,-2.504877\H,0,-1.321193,-4.923988,-0.744515\C,0,0.074786
 ,-2.41006,-2.700316\H,0,-0.797575,-1.751774,-2.702552\H,0,0.973669,-1.
 783656,-2.702895\H,0,0.072306,-2.980318,-3.636544\\Version=AS64L-G16Re
 vC.02\HF=-782.3646032\RMSD=9.369e-09\Dipole=0.9999089,-0.1258594,-0.17
 35878\Quadrupole=-2.1736763,5.3893671,-3.2156907,0.9572556,-1.15675,-1
 .0974785\PG=C01 [X(C18H28B1N1)]\\@
 The archive entry for this job was punched.


 LEARN FROM YESTERDAY,
 LIVE FOR TODAY,
 LOOK TO TOMORROW,
 REST THIS AFTERNOON.

           -- SNOOPY
 Job cpu time:       0 days  2 hours 52 minutes  1.4 seconds.
 Elapsed time:       0 days  0 hours  1 minutes 41.3 seconds.
 File lengths (MBytes):  RWF=    358 Int=      0 D2E=      0 Chk=     25 Scr=      1
 Normal termination of Gaussian 16 at Wed Apr 10 15:48:02 2024.
