 Entering Gaussian System, Link 0=/ccc/products/gaussian-16-C.02/system/default/g16/g16
 Input=tbu_biphenylene_chelpg.gjf
 Output=tbu_biphenylene_chelpg.log
 Initial command:
 /ccc/products/gaussian-16-C.02/system/default/g16/l1.exe "/ccc/scratch/cont003/gen7343/penasfra/flp/b-n_flp/tbu_biphenylene/reac/Gau-85714.inp" -scrdir="/ccc/scratch/cont003/gen7343/penasfra/flp/b-n_flp/tbu_biphenylene/reac/"
 Entering Link 1 = /ccc/products/gaussian-16-C.02/system/default/g16/l1.exe PID=     85764.
  
 Copyright (c) 1988-2021, Gaussian, Inc.  All Rights Reserved.
  
 This is part of the Gaussian(R) 16 program.  It is based on
 the Gaussian(R) 09 system (copyright 2009, Gaussian, Inc.),
 the Gaussian(R) 03 system (copyright 2003, Gaussian, Inc.),
 the Gaussian(R) 98 system (copyright 1998, Gaussian, Inc.),
 the Gaussian(R) 94 system (copyright 1995, Gaussian, Inc.),
 the Gaussian 92(TM) system (copyright 1992, Gaussian, Inc.),
 the Gaussian 90(TM) system (copyright 1990, Gaussian, Inc.),
 the Gaussian 88(TM) system (copyright 1988, Gaussian, Inc.),
 the Gaussian 86(TM) system (copyright 1986, Carnegie Mellon
 University), and the Gaussian 82(TM) system (copyright 1983,
 Carnegie Mellon University). Gaussian is a federally registered
 trademark of Gaussian, Inc.
  
 This software contains proprietary and confidential information,
 including trade secrets, belonging to Gaussian, Inc.
  
 This software is provided under written license and may be
 used, copied, transmitted, or stored only in accord with that
 written license.
  
 The following legend is applicable only to US Government
 contracts under FAR:
  
                    RESTRICTED RIGHTS LEGEND
  
 Use, reproduction and disclosure by the US Government is
 subject to restrictions as set forth in subparagraphs (a)
 and (c) of the Commercial Computer Software - Restricted
 Rights clause in FAR 52.227-19.
  
 Gaussian, Inc.
 340 Quinnipiac St., Bldg. 40, Wallingford CT 06492
  
  
 ---------------------------------------------------------------
 Warning -- This program may not be used in any manner that
 competes with the business of Gaussian, Inc. or will provide
 assistance to any competitor of Gaussian, Inc.  The licensee
 of this program is prohibited from giving any competitor of
 Gaussian, Inc. access to this program.  By using this program,
 the user acknowledges that Gaussian, Inc. is engaged in the
 business of creating and licensing software in the field of
 computational chemistry and represents and warrants to the
 licensee that it is not a competitor of Gaussian, Inc. and that
 it will not use this program in any manner prohibited above.
 ---------------------------------------------------------------
  

 Cite this work as:
 Gaussian 16, Revision C.02,
 M. J. Frisch, G. W. Trucks, H. B. Schlegel, G. E. Scuseria, 
 M. A. Robb, J. R. Cheeseman, G. Scalmani, V. Barone, 
 G. A. Petersson, H. Nakatsuji, X. Li, M. Caricato, A. V. Marenich, 
 J. Bloino, B. G. Janesko, R. Gomperts, B. Mennucci, H. P. Hratchian, 
 J. V. Ortiz, A. F. Izmaylov, J. L. Sonnenberg, D. Williams-Young, 
 F. Ding, F. Lipparini, F. Egidi, J. Goings, B. Peng, A. Petrone, 
 T. Henderson, D. Ranasinghe, V. G. Zakrzewski, J. Gao, N. Rega, 
 G. Zheng, W. Liang, M. Hada, M. Ehara, K. Toyota, R. Fukuda, 
 J. Hasegawa, M. Ishida, T. Nakajima, Y. Honda, O. Kitao, H. Nakai, 
 T. Vreven, K. Throssell, J. A. Montgomery, Jr., J. E. Peralta, 
 F. Ogliaro, M. J. Bearpark, J. J. Heyd, E. N. Brothers, K. N. Kudin, 
 V. N. Staroverov, T. A. Keith, R. Kobayashi, J. Normand, 
 K. Raghavachari, A. P. Rendell, J. C. Burant, S. S. Iyengar, 
 J. Tomasi, M. Cossi, J. M. Millam, M. Klene, C. Adamo, R. Cammi, 
 J. W. Ochterski, R. L. Martin, K. Morokuma, O. Farkas, 
 J. B. Foresman, and D. J. Fox, Gaussian, Inc., Wallingford CT, 2019.
 
 ******************************************
 Gaussian 16:  AS64L-G16RevC.02  7-Dec-2021
                10-Apr-2024 
 ******************************************
 %nprocshared=128
 Will use up to  128 processors via shared memory.
 %mem=30GB
 %chk=tbu_biphenylene_chelpg.chk
 ----------------------------------------------------------------------
 # wb97xd/genecp scrf=(solvent=toluene,pcm) nosymm pop=(chelpg) scfcyc=
 300
 ----------------------------------------------------------------------
 1/38=1,172=1/1;
 2/12=2,15=1,17=6,18=5,40=1/2;
 3/5=7,11=2,16=1,17=8,25=1,30=1,70=2201,72=13,74=-58/1,2,3;
 4//1;
 5/5=2,7=300,38=5,53=13/2;
 6/7=2,8=2,9=2,10=2,15=8,20=3,28=1/1,2;
 99/5=1,9=1/99;
 ----------------------
 tbu_biphenylene_chelpg
 ----------------------
 Symbolic Z-matrix:
 Charge =  0 Multiplicity = 1
 C                     1.8954    2.49506  -0.12375 
 C                     1.90976   2.57871  -1.53834 
 C                     1.32056   3.95899  -1.47045 
 C                     1.27778   3.88214  -0.06181 
 C                     0.96317   5.07062  -2.18236 
 C                     0.83337   4.93548   0.71734 
 C                     0.524     6.15778  -1.39951 
 H                     1.01449   5.13355  -3.26206 
 C                     0.45542   6.09431  -0.01926 
 H                     0.21654   7.07567  -1.88895 
 H                     0.08733   6.96306   0.51105 
 C                     2.43734   1.60648  -2.33537 
 H                     2.47009   1.66989  -3.41646 
 C                     2.97528   0.49428  -1.64627 
 H                     3.41717  -0.31837  -2.21272 
 C                     2.97324   0.42175  -0.26688 
 C                     2.43192   1.44054   0.57812 
 H                     3.43801  -0.44586   0.18797 
 B                     2.58926   1.34683   2.14998 
 N                     0.76468   4.87497   2.11275 
 C                     0.38564   6.07491   2.83116 
 H                    -0.66844   6.35638   2.67773 
 H                     0.53886   5.9016    3.89816 
 H                     1.02024   6.91164   2.53513 
 C                     0.15173   3.67323   2.64705 
 H                     0.34065   3.60824   3.71994 
 H                    -0.93564   3.64955   2.47709 
 H                     0.57874   2.79089   2.17387 
 C                     3.76371   2.24277   2.79963 
 C                     1.69552   0.2459    2.91793 
 C                     4.47949   3.11423   1.74944 
 H                     4.88861   2.51706   0.92979 
 H                     3.80307   3.85502   1.3136 
 H                     5.30868   3.65671   2.21908 
 C                     3.29482   3.19471   3.91804 
 H                     4.16848   3.70762   4.33863 
 H                     2.62864   3.96415   3.51927 
 H                     2.79038   2.68215   4.73668 
 C                     4.81422   1.27104   3.38669 
 H                     5.67877   1.84525   3.73968 
 H                     4.4273    0.70216   4.23506 
 H                     5.18019   0.56012   2.63786 
 C                     1.44632   0.50496   4.4122 
 H                     2.37272   0.54923   4.98902 
 H                     0.90011   1.43773   4.57673 
 H                     0.83995  -0.3071    4.83083 
 C                     0.32581   0.03281   2.24135 
 H                     0.42794  -0.18146   1.17509 
 H                    -0.19093  -0.81367   2.70888 
 H                    -0.32649   0.90429   2.34467 
 C                     2.45792  -1.10236   2.79802 
 H                     1.89912  -1.86807   3.34851 
 H                     2.52961  -1.44355   1.76338 
 H                     3.46396  -1.06337   3.22007 
 
 Symmetry turned off by external request.
 Stoichiometry    C22H30BN
 Framework group  C1[X(C22H30BN)]
 Deg. of freedom   156
 Full point group                 C1      NOp   1
                          Input orientation:                          
 ---------------------------------------------------------------------
 Center     Atomic      Atomic             Coordinates (Angstroms)
 Number     Number       Type             X           Y           Z
 ---------------------------------------------------------------------
      1          6           0        1.895403    2.495063   -0.123748
      2          6           0        1.909756    2.578708   -1.538342
      3          6           0        1.320564    3.958989   -1.470447
      4          6           0        1.277775    3.882136   -0.061814
      5          6           0        0.963172    5.070615   -2.182357
      6          6           0        0.833369    4.935475    0.717343
      7          6           0        0.524002    6.157781   -1.399510
      8          1           0        1.014492    5.133553   -3.262063
      9          6           0        0.455421    6.094310   -0.019255
     10          1           0        0.216540    7.075673   -1.888953
     11          1           0        0.087329    6.963060    0.511053
     12          6           0        2.437342    1.606481   -2.335365
     13          1           0        2.470094    1.669891   -3.416459
     14          6           0        2.975278    0.494277   -1.646271
     15          1           0        3.417165   -0.318372   -2.212721
     16          6           0        2.973239    0.421754   -0.266880
     17          6           0        2.431923    1.440544    0.578123
     18          1           0        3.438009   -0.445858    0.187971
     19          5           0        2.589261    1.346827    2.149981
     20          7           0        0.764678    4.874967    2.112747
     21          6           0        0.385636    6.074906    2.831161
     22          1           0       -0.668437    6.356378    2.677734
     23          1           0        0.538856    5.901595    3.898164
     24          1           0        1.020243    6.911635    2.535132
     25          6           0        0.151726    3.673227    2.647050
     26          1           0        0.340652    3.608242    3.719942
     27          1           0       -0.935643    3.649551    2.477094
     28          1           0        0.578741    2.790887    2.173869
     29          6           0        3.763707    2.242768    2.799625
     30          6           0        1.695524    0.245896    2.917928
     31          6           0        4.479494    3.114233    1.749438
     32          1           0        4.888612    2.517063    0.929785
     33          1           0        3.803069    3.855015    1.313600
     34          1           0        5.308676    3.656708    2.219084
     35          6           0        3.294823    3.194713    3.918041
     36          1           0        4.168479    3.707624    4.338630
     37          1           0        2.628640    3.964151    3.519273
     38          1           0        2.790383    2.682148    4.736683
     39          6           0        4.814220    1.271037    3.386693
     40          1           0        5.678774    1.845245    3.739675
     41          1           0        4.427300    0.702164    4.235060
     42          1           0        5.180191    0.560118    2.637855
     43          6           0        1.446317    0.504959    4.412201
     44          1           0        2.372718    0.549228    4.989020
     45          1           0        0.900109    1.437726    4.576732
     46          1           0        0.839950   -0.307099    4.830829
     47          6           0        0.325808    0.032812    2.241347
     48          1           0        0.427936   -0.181461    1.175091
     49          1           0       -0.190932   -0.813674    2.708879
     50          1           0       -0.326486    0.904288    2.344669
     51          6           0        2.457918   -1.102362    2.798023
     52          1           0        1.899123   -1.868071    3.348505
     53          1           0        2.529614   -1.443546    1.763378
     54          1           0        3.463956   -1.063369    3.220072
 ---------------------------------------------------------------------
 Rotational constants (GHZ):           0.3320720           0.2157210           0.1672817
 General basis read from cards:  (5D, 7F)
 ======================================================================================================
                                       Pseudopotential Parameters
 ======================================================================================================
  Center     Atomic      Valence      Angular      Power
  Number     Number     Electrons     Momentum     of R      Exponent        Coefficient   SO-Coeffient
 ======================================================================================================
    1          6
                                   No pseudopotential on this center.
    2          6
                                   No pseudopotential on this center.
    3          6
                                   No pseudopotential on this center.
    4          6
                                   No pseudopotential on this center.
    5          6
                                   No pseudopotential on this center.
    6          6
                                   No pseudopotential on this center.
    7          6
                                   No pseudopotential on this center.
    8          1
                                   No pseudopotential on this center.
    9          6
                                   No pseudopotential on this center.
   10          1
                                   No pseudopotential on this center.
   11          1
                                   No pseudopotential on this center.
   12          6
                                   No pseudopotential on this center.
   13          1
                                   No pseudopotential on this center.
   14          6
                                   No pseudopotential on this center.
   15          1
                                   No pseudopotential on this center.
   16          6
                                   No pseudopotential on this center.
   17          6
                                   No pseudopotential on this center.
   18          1
                                   No pseudopotential on this center.
   19          5
                                   No pseudopotential on this center.
   20          7
                                   No pseudopotential on this center.
   21          6
                                   No pseudopotential on this center.
   22          1
                                   No pseudopotential on this center.
   23          1
                                   No pseudopotential on this center.
   24          1
                                   No pseudopotential on this center.
   25          6
                                   No pseudopotential on this center.
   26          1
                                   No pseudopotential on this center.
   27          1
                                   No pseudopotential on this center.
   28          1
                                   No pseudopotential on this center.
   29          6
                                   No pseudopotential on this center.
   30          6
                                   No pseudopotential on this center.
   31          6
                                   No pseudopotential on this center.
   32          1
                                   No pseudopotential on this center.
   33          1
                                   No pseudopotential on this center.
   34          1
                                   No pseudopotential on this center.
   35          6
                                   No pseudopotential on this center.
   36          1
                                   No pseudopotential on this center.
   37          1
                                   No pseudopotential on this center.
   38          1
                                   No pseudopotential on this center.
   39          6
                                   No pseudopotential on this center.
   40          1
                                   No pseudopotential on this center.
   41          1
                                   No pseudopotential on this center.
   42          1
                                   No pseudopotential on this center.
   43          6
                                   No pseudopotential on this center.
   44          1
                                   No pseudopotential on this center.
   45          1
                                   No pseudopotential on this center.
   46          1
                                   No pseudopotential on this center.
   47          6
                                   No pseudopotential on this center.
   48          1
                                   No pseudopotential on this center.
   49          1
                                   No pseudopotential on this center.
   50          1
                                   No pseudopotential on this center.
   51          6
                                   No pseudopotential on this center.
   52          1
                                   No pseudopotential on this center.
   53          1
                                   No pseudopotential on this center.
   54          1
                                   No pseudopotential on this center.
 ======================================================================================================
   738 basis functions,  1134 primitive gaussians,   762 cartesian basis functions
    87 alpha electrons       87 beta electrons
       nuclear repulsion energy      2137.3254469975 Hartrees.
 NAtoms=   54 NActive=   54 NUniq=   54 SFac= 1.00D+00 NAtFMM=   60 NAOKFM=F Big=F
 Integral buffers will be    131072 words long.
 Raffenetti 2 integral format.
 Two-electron integral symmetry is turned off.
 Nuclear repulsion after empirical dispersion term =     2137.2656426885 Hartrees.
 ------------------------------------------------------------------------------
 Polarizable Continuum Model (PCM)
 =================================
 Model                : PCM.
 Atomic radii         : UFF (Universal Force Field).
 Polarization charges : Total charges.
 Charge compensation  : None.
 Solution method      : On-the-fly selection.
 Cavity type          : Scaled VdW (van der Waals Surface) (Alpha=1.100).
 Cavity algorithm     : GePol (No added spheres)
                        Default sphere list used, NSphG=   54.
                        Lebedev-Laikov grids with approx.  5.0 points / Ang**2.
                        Smoothing algorithm: York/Karplus (Gamma=1.0000).
                        Polarization charges: spherical gaussians, with
                                              point-specific exponents (IZeta= 3).
                        Self-potential: point-specific (ISelfS= 7).
                        Self-field    : sphere-specific E.n sum rule (ISelfD= 2).
 Solvent              : Toluene, Eps=   2.374100 Eps(inf)=   2.238315
 ------------------------------------------------------------------------------
 One-electron integrals computed using PRISM.
   1 Symmetry operations used in ECPInt.
 ECPInt:  NShTT=   43365 NPrTT=  137025 LenC2=   39752 LenP2D=   87950.
 LDataN:  DoStor=T MaxTD1= 4 Len=   56
 Number of processors reduced to  61 by ecpmxn.
 NBasis=   738 RedAO= T EigKep=  1.06D-06  NBF=   738
 NBsUse=   730 1.00D-06 EigRej=  6.93D-07 NBFU=   730
 ExpMin= 3.15D-02 ExpMax= 6.29D+03 ExpMxC= 9.49D+02 IAcc=3 IRadAn=         5 AccDes= 0.00D+00
 Harris functional with IExCor= 4639 and IRadAn=       5 diagonalized for initial guess.
 HarFok:  IExCor= 4639 AccDes= 0.00D+00 IRadAn=         5 IDoV= 1 UseB2=F ITyADJ=14
 ICtDFT=  3500011 ScaDFX=  1.000000  1.000000  1.000000  1.000000
 FoFCou: FMM=F IPFlag=           0 FMFlag=      100000 FMFlg1=           0
         NFxFlg=           0 DoJE=T BraDBF=F KetDBF=T FulRan=T
         wScrn=  0.000000 ICntrl=       500 IOpCl=  0 I1Cent=   200000004 NGrid=           0
         NMat0=    1 NMatS0=      1 NMatT0=    0 NMatD0=    1 NMtDS0=    0 NMtDT0=    0
 Symmetry not used in FoFCou.
 Requested convergence on RMS density matrix=1.00D-08 within 300 cycles.
 Requested convergence on MAX density matrix=1.00D-06.
 Requested convergence on             energy=1.00D-06.
 No special actions if energy rises.
 Inv3:  Mode=1 IEnd=    29635347.
 Iteration    1 A*A^-1 deviation from unit magnitude is 1.08D-14 for   3143.
 Iteration    1 A*A^-1 deviation from orthogonality  is 2.44D-15 for   3105   3078.
 Iteration    1 A^-1*A deviation from unit magnitude is 1.08D-14 for   3143.
 Iteration    1 A^-1*A deviation from orthogonality  is 2.83D-15 for   3127   3047.
 Error on total polarization charges =  0.01267
 SCF Done:  E(RwB97XD) =  -935.896857752     A.U. after   17 cycles
            NFock= 17  Conv=0.39D-08     -V/T= 2.0047

 **********************************************************************

            Population analysis using the SCF Density.

 **********************************************************************

 Alpha  occ. eigenvalues --  -14.45100 -10.33402 -10.31287 -10.31051 -10.30133
 Alpha  occ. eigenvalues --  -10.30056 -10.29781 -10.29531 -10.29279 -10.28992
 Alpha  occ. eigenvalues --  -10.28974 -10.28879 -10.28842 -10.28617 -10.27959
 Alpha  occ. eigenvalues --  -10.27824 -10.27507 -10.27394 -10.27136 -10.26806
 Alpha  occ. eigenvalues --  -10.26457 -10.26237 -10.25676  -6.85362  -1.05737
 Alpha  occ. eigenvalues --   -1.00535  -0.94539  -0.91164  -0.90013  -0.89478
 Alpha  occ. eigenvalues --   -0.85964  -0.84552  -0.82579  -0.80171  -0.78506
 Alpha  occ. eigenvalues --   -0.77949  -0.77479  -0.76939  -0.76315  -0.72607
 Alpha  occ. eigenvalues --   -0.71227  -0.67722  -0.66586  -0.64267  -0.63462
 Alpha  occ. eigenvalues --   -0.62247  -0.58349  -0.57709  -0.57502  -0.56099
 Alpha  occ. eigenvalues --   -0.55756  -0.54686  -0.54244  -0.53647  -0.52987
 Alpha  occ. eigenvalues --   -0.52108  -0.51627  -0.51101  -0.50504  -0.50312
 Alpha  occ. eigenvalues --   -0.49823  -0.49107  -0.48364  -0.48101  -0.47314
 Alpha  occ. eigenvalues --   -0.47032  -0.46429  -0.45862  -0.45335  -0.45231
 Alpha  occ. eigenvalues --   -0.44424  -0.44192  -0.43797  -0.42803  -0.42533
 Alpha  occ. eigenvalues --   -0.41796  -0.41445  -0.40806  -0.40017  -0.39751
 Alpha  occ. eigenvalues --   -0.37873  -0.36939  -0.36043  -0.35801  -0.32346
 Alpha  occ. eigenvalues --   -0.28859  -0.26722
 Alpha virt. eigenvalues --    0.00950   0.02625   0.03794   0.04226   0.04534
 Alpha virt. eigenvalues --    0.04628   0.05044   0.05685   0.05845   0.06259
 Alpha virt. eigenvalues --    0.06529   0.07210   0.07232   0.07338   0.08154
 Alpha virt. eigenvalues --    0.08453   0.08731   0.09100   0.09284   0.09448
 Alpha virt. eigenvalues --    0.09637   0.09921   0.10505   0.10595   0.11109
 Alpha virt. eigenvalues --    0.11342   0.11498   0.11850   0.12464   0.12571
 Alpha virt. eigenvalues --    0.13176   0.13412   0.13483   0.14069   0.14414
 Alpha virt. eigenvalues --    0.14612   0.15023   0.15175   0.15571   0.15701
 Alpha virt. eigenvalues --    0.16005   0.16251   0.16369   0.16558   0.16678
 Alpha virt. eigenvalues --    0.17158   0.17299   0.17493   0.17745   0.18109
 Alpha virt. eigenvalues --    0.18227   0.18303   0.18616   0.18789   0.19048
 Alpha virt. eigenvalues --    0.19286   0.19359   0.19516   0.19882   0.20062
 Alpha virt. eigenvalues --    0.20113   0.20365   0.20674   0.20839   0.21044
 Alpha virt. eigenvalues --    0.21314   0.21531   0.21731   0.21847   0.21943
 Alpha virt. eigenvalues --    0.22144   0.22344   0.22505   0.22727   0.22831
 Alpha virt. eigenvalues --    0.22897   0.23409   0.23544   0.23824   0.23988
 Alpha virt. eigenvalues --    0.24434   0.24612   0.24856   0.25295   0.25407
 Alpha virt. eigenvalues --    0.25712   0.26203   0.26366   0.26493   0.26988
 Alpha virt. eigenvalues --    0.27074   0.27260   0.27374   0.27700   0.27961
 Alpha virt. eigenvalues --    0.28121   0.28347   0.28459   0.28489   0.29044
 Alpha virt. eigenvalues --    0.29141   0.29368   0.29554   0.29846   0.30084
 Alpha virt. eigenvalues --    0.30376   0.30526   0.30755   0.31063   0.31323
 Alpha virt. eigenvalues --    0.31639   0.31761   0.31917   0.32253   0.32291
 Alpha virt. eigenvalues --    0.32474   0.32991   0.33371   0.33466   0.33696
 Alpha virt. eigenvalues --    0.34323   0.34498   0.34840   0.34875   0.35071
 Alpha virt. eigenvalues --    0.35454   0.35788   0.36092   0.36208   0.36670
 Alpha virt. eigenvalues --    0.37051   0.37387   0.37517   0.37774   0.37909
 Alpha virt. eigenvalues --    0.38162   0.38541   0.38668   0.38965   0.39613
 Alpha virt. eigenvalues --    0.39647   0.39958   0.40187   0.40409   0.40826
 Alpha virt. eigenvalues --    0.41090   0.41196   0.41470   0.41636   0.42150
 Alpha virt. eigenvalues --    0.42704   0.43159   0.43224   0.43517   0.43909
 Alpha virt. eigenvalues --    0.44015   0.44276   0.44972   0.45052   0.45582
 Alpha virt. eigenvalues --    0.46260   0.46811   0.47219   0.47453   0.47743
 Alpha virt. eigenvalues --    0.48190   0.48842   0.49471   0.50215   0.50380
 Alpha virt. eigenvalues --    0.51510   0.52475   0.53284   0.54129   0.55212
 Alpha virt. eigenvalues --    0.56150   0.56793   0.57321   0.57906   0.57980
 Alpha virt. eigenvalues --    0.58735   0.59282   0.60276   0.60377   0.61635
 Alpha virt. eigenvalues --    0.62313   0.62511   0.63579   0.63794   0.64055
 Alpha virt. eigenvalues --    0.64223   0.64940   0.65597   0.65918   0.66635
 Alpha virt. eigenvalues --    0.67011   0.67154   0.67589   0.67841   0.68602
 Alpha virt. eigenvalues --    0.69156   0.69235   0.70192   0.70357   0.70680
 Alpha virt. eigenvalues --    0.71275   0.71861   0.72204   0.72386   0.72830
 Alpha virt. eigenvalues --    0.73498   0.73588   0.73767   0.75018   0.75110
 Alpha virt. eigenvalues --    0.75364   0.76160   0.76308   0.76676   0.77045
 Alpha virt. eigenvalues --    0.77198   0.77395   0.77817   0.78135   0.78662
 Alpha virt. eigenvalues --    0.79357   0.79590   0.80063   0.80288   0.80591
 Alpha virt. eigenvalues --    0.80977   0.81277   0.81461   0.82263   0.82593
 Alpha virt. eigenvalues --    0.83241   0.83388   0.83657   0.84028   0.84539
 Alpha virt. eigenvalues --    0.85223   0.85776   0.86035   0.86186   0.86570
 Alpha virt. eigenvalues --    0.87108   0.87744   0.87880   0.88161   0.88410
 Alpha virt. eigenvalues --    0.89159   0.89543   0.90092   0.90394   0.90852
 Alpha virt. eigenvalues --    0.91128   0.91506   0.92032   0.92787   0.93078
 Alpha virt. eigenvalues --    0.93306   0.93960   0.94436   0.95019   0.95617
 Alpha virt. eigenvalues --    0.95958   0.96463   0.97991   0.98385   0.98927
 Alpha virt. eigenvalues --    0.99468   0.99774   1.00332   1.01026   1.01915
 Alpha virt. eigenvalues --    1.02327   1.03111   1.03396   1.04637   1.05070
 Alpha virt. eigenvalues --    1.05284   1.06176   1.06512   1.07593   1.08011
 Alpha virt. eigenvalues --    1.09397   1.10288   1.11110   1.11457   1.12738
 Alpha virt. eigenvalues --    1.13339   1.14337   1.14773   1.15287   1.16056
 Alpha virt. eigenvalues --    1.16410   1.17336   1.18029   1.19041   1.19521
 Alpha virt. eigenvalues --    1.20401   1.20475   1.20956   1.21753   1.22472
 Alpha virt. eigenvalues --    1.22881   1.23439   1.25446   1.26000   1.26266
 Alpha virt. eigenvalues --    1.28636   1.29564   1.30234   1.31385   1.32338
 Alpha virt. eigenvalues --    1.33567   1.35038   1.36672   1.37277   1.38475
 Alpha virt. eigenvalues --    1.40168   1.41629   1.42558   1.42915   1.44235
 Alpha virt. eigenvalues --    1.45059   1.46739   1.47308   1.49302   1.49821
 Alpha virt. eigenvalues --    1.52903   1.53601   1.54731   1.55229   1.55695
 Alpha virt. eigenvalues --    1.56414   1.57115   1.57353   1.58121   1.58530
 Alpha virt. eigenvalues --    1.58856   1.59132   1.60450   1.61157   1.61679
 Alpha virt. eigenvalues --    1.62276   1.63166   1.63343   1.64065   1.64366
 Alpha virt. eigenvalues --    1.64648   1.65337   1.65379   1.66195   1.66919
 Alpha virt. eigenvalues --    1.67214   1.67733   1.68201   1.68963   1.69227
 Alpha virt. eigenvalues --    1.69911   1.70218   1.70426   1.71065   1.71641
 Alpha virt. eigenvalues --    1.71994   1.72923   1.73817   1.74439   1.75319
 Alpha virt. eigenvalues --    1.76298   1.76769   1.77668   1.77816   1.78159
 Alpha virt. eigenvalues --    1.78960   1.79787   1.79914   1.80655   1.80777
 Alpha virt. eigenvalues --    1.81234   1.81634   1.82069   1.82726   1.83652
 Alpha virt. eigenvalues --    1.84159   1.84936   1.85621   1.86045   1.86221
 Alpha virt. eigenvalues --    1.87055   1.87621   1.88290   1.89184   1.89965
 Alpha virt. eigenvalues --    1.90704   1.90979   1.91062   1.91750   1.92324
 Alpha virt. eigenvalues --    1.92892   1.93342   1.94398   1.95902   1.96816
 Alpha virt. eigenvalues --    1.96987   1.97257   1.98209   1.98789   1.99640
 Alpha virt. eigenvalues --    1.99694   2.00329   2.00600   2.01442   2.02431
 Alpha virt. eigenvalues --    2.02693   2.03887   2.06098   2.07169   2.07286
 Alpha virt. eigenvalues --    2.08006   2.08531   2.09067   2.09791   2.10343
 Alpha virt. eigenvalues --    2.11013   2.12537   2.12907   2.14385   2.15446
 Alpha virt. eigenvalues --    2.15908   2.16656   2.17115   2.17830   2.18823
 Alpha virt. eigenvalues --    2.19302   2.20423   2.21245   2.22080   2.23052
 Alpha virt. eigenvalues --    2.24083   2.24972   2.25527   2.25773   2.27133
 Alpha virt. eigenvalues --    2.28673   2.30014   2.30362   2.31345   2.32261
 Alpha virt. eigenvalues --    2.33024   2.34959   2.35164   2.36515   2.36755
 Alpha virt. eigenvalues --    2.38303   2.39596   2.40096   2.42769   2.44234
 Alpha virt. eigenvalues --    2.45057   2.45635   2.47072   2.47758   2.49008
 Alpha virt. eigenvalues --    2.51076   2.51831   2.53044   2.53693   2.55146
 Alpha virt. eigenvalues --    2.55991   2.56251   2.57144   2.57876   2.58242
 Alpha virt. eigenvalues --    2.58632   2.59650   2.60467   2.61290   2.62519
 Alpha virt. eigenvalues --    2.63086   2.63628   2.63991   2.64494   2.65391
 Alpha virt. eigenvalues --    2.65909   2.66030   2.66942   2.67276   2.67438
 Alpha virt. eigenvalues --    2.67759   2.68534   2.69510   2.70144   2.70325
 Alpha virt. eigenvalues --    2.70927   2.71895   2.72998   2.73262   2.74403
 Alpha virt. eigenvalues --    2.75135   2.76243   2.76590   2.77663   2.78497
 Alpha virt. eigenvalues --    2.80032   2.80913   2.81847   2.81913   2.82724
 Alpha virt. eigenvalues --    2.83170   2.84025   2.85349   2.85414   2.86545
 Alpha virt. eigenvalues --    2.87136   2.87388   2.88144   2.88536   2.89383
 Alpha virt. eigenvalues --    2.89882   2.90171   2.90573   2.91458   2.92663
 Alpha virt. eigenvalues --    2.93160   2.93973   2.94243   2.94815   2.95872
 Alpha virt. eigenvalues --    2.96527   2.97306   2.98109   2.99159   2.99764
 Alpha virt. eigenvalues --    3.00157   3.01228   3.02284   3.03701   3.04714
 Alpha virt. eigenvalues --    3.06243   3.07047   3.09040   3.09666   3.10705
 Alpha virt. eigenvalues --    3.12772   3.14081   3.14602   3.17211   3.18861
 Alpha virt. eigenvalues --    3.20340   3.20662   3.21427   3.22740   3.23898
 Alpha virt. eigenvalues --    3.25602   3.26936   3.28149   3.29842   3.31447
 Alpha virt. eigenvalues --    3.32794   3.34784   3.35725   3.38729   3.39323
 Alpha virt. eigenvalues --    3.41210   3.44206   3.45225   3.48719   3.53093
 Alpha virt. eigenvalues --    3.54692   3.55149   3.56728   3.63152   3.63875
 Alpha virt. eigenvalues --    3.64993   3.67441   3.69196   3.69589   3.72883
 Alpha virt. eigenvalues --    3.78920   3.82711   3.84839   3.87502   3.88747
 Alpha virt. eigenvalues --    3.89068   3.89837   3.90687   3.90738   3.91371
 Alpha virt. eigenvalues --    3.92597   3.93494   3.94213   3.94598   3.95356
 Alpha virt. eigenvalues --    3.95605   3.96279   3.96982   3.97707   3.98854
 Alpha virt. eigenvalues --    4.07657   4.10622   4.14023   4.15200   4.16340
 Alpha virt. eigenvalues --    4.17691   4.26483   4.35218   4.37984   4.39111
 Alpha virt. eigenvalues --    4.40577   4.42284   4.43791   4.47614   4.53925
 Alpha virt. eigenvalues --    4.89928   4.98898   5.01530   5.16850  14.86936
 Alpha virt. eigenvalues --   23.70076  23.83779  23.95589  23.99647  24.06780
 Alpha virt. eigenvalues --   24.07503  24.08574  24.10588  24.11962  24.12453
 Alpha virt. eigenvalues --   24.13048  24.13657  24.14516  24.16162  24.17369
 Alpha virt. eigenvalues --   24.18486  24.22654  24.24339  24.28519  24.31001
 Alpha virt. eigenvalues --   24.33133  24.49147  35.77003
          Condensed to atoms (all electrons):
 Mulliken charges:
               1
     1  C   -0.062226
     2  C    0.431368
     3  C    0.439190
     4  C   -0.422438
     5  C   -0.330992
     6  C   -0.015628
     7  C   -0.552068
     8  H    0.209689
     9  C   -0.124097
    10  H    0.232554
    11  H    0.203826
    12  C   -0.173802
    13  H    0.217636
    14  C   -0.285207
    15  H    0.237666
    16  C   -0.272925
    17  C    0.802081
    18  H    0.195514
    19  B   -1.445013
    20  N    0.264623
    21  C   -0.376415
    22  H    0.169007
    23  H    0.162516
    24  H    0.170598
    25  C   -0.603754
    26  H    0.181692
    27  H    0.221813
    28  H    0.149408
    29  C   -0.090838
    30  C    0.062484
    31  C   -0.356132
    32  H    0.230313
    33  H    0.171784
    34  H    0.180570
    35  C   -0.480315
    36  H    0.169704
    37  H    0.231406
    38  H    0.153103
    39  C   -0.405216
    40  H    0.177436
    41  H    0.195227
    42  H    0.203556
    43  C   -0.379282
    44  H    0.179963
    45  H    0.135756
    46  H    0.175783
    47  C   -0.693906
    48  H    0.239706
    49  H    0.185771
    50  H    0.145732
    51  C   -0.535901
    52  H    0.174379
    53  H    0.149753
    54  H    0.154548
 Sum of Mulliken charges =  -0.00000
 Mulliken charges with hydrogens summed into heavy atoms:
               1
     1  C   -0.062226
     2  C    0.431368
     3  C    0.439190
     4  C   -0.422438
     5  C   -0.121302
     6  C   -0.015628
     7  C   -0.319513
     9  C    0.079729
    12  C    0.043835
    14  C   -0.047541
    16  C   -0.077411
    17  C    0.802081
    19  B   -1.445013
    20  N    0.264623
    21  C    0.125706
    25  C   -0.050842
    29  C   -0.090838
    30  C    0.062484
    31  C    0.226536
    35  C    0.073898
    39  C    0.171002
    43  C    0.112219
    47  C   -0.122697
    51  C   -0.057220
 Electronic spatial extent (au):  <R**2>=          14959.9608
 Charge=             -0.0000 electrons
 Dipole moment (field-independent basis, Debye):
    X=             -0.7679    Y=              0.5133    Z=              1.5287  Tot=              1.7861
 Quadrupole moment (field-independent basis, Debye-Ang):
   XX=           -153.8152   YY=           -136.2575   ZZ=           -137.4742
   XY=             -9.1136   XZ=             -1.4028   YZ=              6.6680
 Traceless Quadrupole moment (field-independent basis, Debye-Ang):
   XX=            -11.2995   YY=              6.2581   ZZ=              5.0414
   XY=             -9.1136   XZ=             -1.4028   YZ=              6.6680
 Octapole moment (field-independent basis, Debye-Ang**2):
  XXX=           -889.2549  YYY=          -1055.6672  ZZZ=           -538.4058  XYY=           -326.9073
  XXY=           -432.6997  XXZ=           -174.6442  XZZ=           -278.4381  YZZ=           -347.1211
  YYZ=           -140.6650  XYZ=             -3.1104
 Hexadecapole moment (field-independent basis, Debye-Ang**3):
 XXXX=          -5445.3201 YYYY=          -9574.1064 ZZZZ=          -5251.2439 XXXY=          -1813.9692
 XXXZ=          -1212.0847 YYYX=          -1878.0888 YYYZ=           -673.4835 ZZZX=          -1293.9416
 ZZZY=           -870.3258 XXYY=          -2822.7435 XXZZ=          -1771.5454 YYZZ=          -2404.1510
 XXYZ=           -270.7223 YYXZ=           -423.5272 ZZXY=           -556.3489
 N-N= 2.137265642689D+03 E-N=-6.444424880733D+03  KE= 9.315271617392D+02
 Breneman (CHELPG) radii used.
 Generate Potential Derived Charges using the Breneman model, NDens= 1.
 Grid spacing= 0.300 Box extension= 2.800
 NStep X,Y,Z=   42     50     48   Total possible points=      100800
 Number of Points to Fit=   24443

 **********************************************************************

            Electrostatic Properties Using The SCF Density.

 **********************************************************************

       Atomic Center    1 is at   1.895403  2.495063 -0.123748
       Atomic Center    2 is at   1.909756  2.578708 -1.538342
       Atomic Center    3 is at   1.320564  3.958989 -1.470447
       Atomic Center    4 is at   1.277775  3.882136 -0.061814
       Atomic Center    5 is at   0.963172  5.070615 -2.182357
       Atomic Center    6 is at   0.833369  4.935475  0.717343
       Atomic Center    7 is at   0.524002  6.157781 -1.399510
       Atomic Center    8 is at   1.014492  5.133553 -3.262063
       Atomic Center    9 is at   0.455421  6.094310 -0.019255
       Atomic Center   10 is at   0.216540  7.075673 -1.888953
       Atomic Center   11 is at   0.087329  6.963060  0.511053
       Atomic Center   12 is at   2.437342  1.606481 -2.335365
       Atomic Center   13 is at   2.470094  1.669891 -3.416459
       Atomic Center   14 is at   2.975278  0.494277 -1.646271
       Atomic Center   15 is at   3.417165 -0.318372 -2.212721
       Atomic Center   16 is at   2.973239  0.421754 -0.266880
       Atomic Center   17 is at   2.431923  1.440544  0.578123
       Atomic Center   18 is at   3.438009 -0.445858  0.187971
       Atomic Center   19 is at   2.589261  1.346827  2.149981
       Atomic Center   20 is at   0.764678  4.874967  2.112747
       Atomic Center   21 is at   0.385636  6.074906  2.831161
       Atomic Center   22 is at  -0.668437  6.356378  2.677734
       Atomic Center   23 is at   0.538856  5.901595  3.898164
       Atomic Center   24 is at   1.020243  6.911635  2.535132
       Atomic Center   25 is at   0.151726  3.673227  2.647050
       Atomic Center   26 is at   0.340652  3.608242  3.719942
       Atomic Center   27 is at  -0.935643  3.649551  2.477094
       Atomic Center   28 is at   0.578741  2.790887  2.173869
       Atomic Center   29 is at   3.763707  2.242768  2.799625
       Atomic Center   30 is at   1.695524  0.245896  2.917928
       Atomic Center   31 is at   4.479494  3.114233  1.749438
       Atomic Center   32 is at   4.888612  2.517063  0.929785
       Atomic Center   33 is at   3.803069  3.855015  1.313600
       Atomic Center   34 is at   5.308676  3.656708  2.219084
       Atomic Center   35 is at   3.294823  3.194713  3.918041
       Atomic Center   36 is at   4.168479  3.707624  4.338630
       Atomic Center   37 is at   2.628640  3.964151  3.519273
       Atomic Center   38 is at   2.790383  2.682148  4.736683
       Atomic Center   39 is at   4.814220  1.271037  3.386693
       Atomic Center   40 is at   5.678774  1.845245  3.739675
       Atomic Center   41 is at   4.427300  0.702164  4.235060
       Atomic Center   42 is at   5.180191  0.560118  2.637855
       Atomic Center   43 is at   1.446317  0.504959  4.412201
       Atomic Center   44 is at   2.372718  0.549228  4.989020
       Atomic Center   45 is at   0.900109  1.437726  4.576732
       Atomic Center   46 is at   0.839950 -0.307099  4.830829
       Atomic Center   47 is at   0.325808  0.032812  2.241347
       Atomic Center   48 is at   0.427936 -0.181461  1.175091
       Atomic Center   49 is at  -0.190932 -0.813674  2.708879
       Atomic Center   50 is at  -0.326486  0.904288  2.344669
       Atomic Center   51 is at   2.457918 -1.102362  2.798023
       Atomic Center   52 is at   1.899123 -1.868071  3.348505
       Atomic Center   53 is at   2.529614 -1.443546  1.763378
       Atomic Center   54 is at   3.463956 -1.063369  3.220072
   24443 points will be used for fitting atomic charges
 Fitting point charges to electrostatic potential
 Charges from ESP fit, RMS=   0.00362 RRMS=   0.33652:
 ESP charges:
               1
     1  C   -0.013810
     2  C    0.051019
     3  C    0.103676
     4  C   -0.129545
     5  C   -0.248289
     6  C    0.273287
     7  C   -0.072171
     8  H    0.139798
     9  C   -0.272201
    10  H    0.108949
    11  H    0.137430
    12  C   -0.200707
    13  H    0.130644
    14  C   -0.103713
    15  H    0.104089
    16  C   -0.151607
    17  C    0.058527
    18  H    0.078079
    19  B    0.273673
    20  N   -0.202360
    21  C   -0.122001
    22  H    0.051389
    23  H    0.075570
    24  H    0.073904
    25  C    0.102420
    26  H    0.068843
    27  H    0.004556
    28  H   -0.077878
    29  C    0.255477
    30  C    0.261377
    31  C   -0.053136
    32  H   -0.047528
    33  H   -0.048271
    34  H    0.018991
    35  C   -0.258693
    36  H    0.051581
    37  H    0.012763
    38  H    0.050005
    39  C   -0.317731
    40  H    0.068812
    41  H    0.067013
    42  H    0.059263
    43  C   -0.415723
    44  H    0.096386
    45  H    0.073519
    46  H    0.089433
    47  C   -0.177835
    48  H   -0.042883
    49  H    0.060132
    50  H    0.029560
    51  C   -0.191205
    52  H    0.042674
    53  H    0.043620
    54  H    0.030829
 Sum of ESP charges =  -0.00000
 ESP charges with hydrogens summed into heavy atoms:
               1
     1  C   -0.013810
     2  C    0.051019
     3  C    0.103676
     4  C   -0.129545
     5  C   -0.108491
     6  C    0.273287
     7  C    0.036778
     9  C   -0.134772
    12  C   -0.070063
    14  C    0.000375
    16  C   -0.073528
    17  C    0.058527
    19  B    0.273673
    20  N   -0.202360
    21  C    0.078863
    25  C    0.097941
    29  C    0.255477
    30  C    0.261377
    31  C   -0.129944
    35  C   -0.144345
    39  C   -0.122642
    43  C   -0.156385
    47  C   -0.131026
    51  C   -0.074082
 Charge=  -0.00000 Dipole=    -0.8770     0.5115     1.4537 Tot=     1.7731
 -----------------------------------------------------------------

              Electrostatic Properties (Atomic Units)

 -----------------------------------------------------------------
    Center     Electric         -------- Electric Field --------
               Potential          X             Y             Z
 -----------------------------------------------------------------
    1 Atom    -14.767592
    2 Atom    -14.772940
    3 Atom    -14.770275
    4 Atom    -14.772983
    5 Atom    -14.780110
    6 Atom    -14.729443
    7 Atom    -14.773175
    8 Atom     -1.105519
    9 Atom    -14.775481
   10 Atom     -1.107811
   11 Atom     -1.102682
   12 Atom    -14.776700
   13 Atom     -1.104223
   14 Atom    -14.777028
   15 Atom     -1.110250
   16 Atom    -14.775218
   17 Atom    -14.787565
   18 Atom     -1.111062
   19 Atom    -11.461256
   20 Atom    -18.371243
   21 Atom    -14.740941
   22 Atom     -1.108600
   23 Atom     -1.102160
   24 Atom     -1.104427
   25 Atom    -14.741184
   26 Atom     -1.102628
   27 Atom     -1.109986
   28 Atom     -1.103273
   29 Atom    -14.779583
   30 Atom    -14.773503
   31 Atom    -14.804267
   32 Atom     -1.144108
   33 Atom     -1.145104
   34 Atom     -1.142486
   35 Atom    -14.794761
   36 Atom     -1.134069
   37 Atom     -1.135110
   38 Atom     -1.132075
   39 Atom    -14.785365
   40 Atom     -1.127301
   41 Atom     -1.125118
   42 Atom     -1.124791
   43 Atom    -14.787396
   44 Atom     -1.125661
   45 Atom     -1.125153
   46 Atom     -1.128234
   47 Atom    -14.793150
   48 Atom     -1.135872
   49 Atom     -1.132014
   50 Atom     -1.130006
   51 Atom    -14.781780
   52 Atom     -1.121847
   53 Atom     -1.122553
   54 Atom     -1.122283
 -----------------------------------------------------------------
 Unable to Open any file for archive entry.
 1\1\GINC-IRENE4576\SP\RwB97XD\GenECP\C22H30B1N1\PENASFRA\10-Apr-2024\0
 \\# wb97xd/genecp scrf=(solvent=toluene,pcm) nosymm pop=(chelpg) scfcy
 c=300\\tbu_biphenylene_chelpg\\0,1\C,0,1.895403,2.495063,-0.123748\C,0
 ,1.909756,2.578708,-1.538342\C,0,1.320564,3.958989,-1.470447\C,0,1.277
 775,3.882136,-0.061814\C,0,0.963172,5.070615,-2.182357\C,0,0.833369,4.
 935475,0.717343\C,0,0.524002,6.157781,-1.39951\H,0,1.014492,5.133553,-
 3.262063\C,0,0.455421,6.09431,-0.019255\H,0,0.21654,7.075673,-1.888953
 \H,0,0.087329,6.96306,0.511053\C,0,2.437342,1.606481,-2.335365\H,0,2.4
 70094,1.669891,-3.416459\C,0,2.975278,0.494277,-1.646271\H,0,3.417165,
 -0.318372,-2.212721\C,0,2.973239,0.421754,-0.26688\C,0,2.431923,1.4405
 44,0.578123\H,0,3.438009,-0.445858,0.187971\B,0,2.589261,1.346827,2.14
 9981\N,0,0.764678,4.874967,2.112747\C,0,0.385636,6.074906,2.831161\H,0
 ,-0.668437,6.356378,2.677734\H,0,0.538856,5.901595,3.898164\H,0,1.0202
 43,6.911635,2.535132\C,0,0.151726,3.673227,2.64705\H,0,0.340652,3.6082
 42,3.719942\H,0,-0.935643,3.649551,2.477094\H,0,0.578741,2.790887,2.17
 3869\C,0,3.763707,2.242768,2.799625\C,0,1.695524,0.245896,2.917928\C,0
 ,4.479494,3.114233,1.749438\H,0,4.888612,2.517063,0.929785\H,0,3.80306
 9,3.855015,1.3136\H,0,5.308676,3.656708,2.219084\C,0,3.294823,3.194713
 ,3.918041\H,0,4.168479,3.707624,4.33863\H,0,2.62864,3.964151,3.519273\
 H,0,2.790383,2.682148,4.736683\C,0,4.81422,1.271037,3.386693\H,0,5.678
 774,1.845245,3.739675\H,0,4.4273,0.702164,4.23506\H,0,5.180191,0.56011
 8,2.637855\C,0,1.446317,0.504959,4.412201\H,0,2.372718,0.549228,4.9890
 2\H,0,0.900109,1.437726,4.576732\H,0,0.83995,-0.307099,4.830829\C,0,0.
 325808,0.032812,2.241347\H,0,0.427936,-0.181461,1.175091\H,0,-0.190932
 ,-0.813674,2.708879\H,0,-0.326486,0.904288,2.344669\C,0,2.457918,-1.10
 2362,2.798023\H,0,1.899123,-1.868071,3.348505\H,0,2.529614,-1.443546,1
 .763378\H,0,3.463956,-1.063369,3.220072\\Version=AS64L-G16RevC.02\HF=-
 935.8968578\RMSD=3.876e-09\Dipole=-0.3021168,0.2019384,0.6014272\Quadr
 upole=-8.4009211,4.6527633,3.7481578,-6.7757124,-1.0429558,4.9574871\P
 G=C01 [X(C22H30B1N1)]\\@
 The archive entry for this job was punched.


 THERE ARE PEOPLE SO ADDICTED TO EXAGERATING THEY
 CAN'T TELL THE TRUTH WITHOUT LYING. -- FORTUNE COOKIE
 Job cpu time:       0 days  5 hours  3 minutes 27.2 seconds.
 Elapsed time:       0 days  0 hours  2 minutes 51.3 seconds.
 File lengths (MBytes):  RWF=    453 Int=      0 D2E=      0 Chk=     34 Scr=      1
 Normal termination of Gaussian 16 at Wed Apr 10 17:10:24 2024.
