 Entering Gaussian System, Link 0=/ccc/products/gaussian-16-C.02/system/default/g16/g16
 Input=tbu_nmeimidazole_chelpg.gjf
 Output=tbu_nmeimidazole_chelpg.log
 Initial command:
 /ccc/products/gaussian-16-C.02/system/default/g16/l1.exe "/ccc/scratch/cont003/gen7343/penasfra/flp/b-n_flp/tbu_nmeimidazole/reac/Gau-1039429.inp" -scrdir="/ccc/scratch/cont003/gen7343/penasfra/flp/b-n_flp/tbu_nmeimidazole/reac/"
 Entering Link 1 = /ccc/products/gaussian-16-C.02/system/default/g16/l1.exe PID=   1039478.
  
 Copyright (c) 1988-2021, Gaussian, Inc.  All Rights Reserved.
  
 This is part of the Gaussian(R) 16 program.  It is based on
 the Gaussian(R) 09 system (copyright 2009, Gaussian, Inc.),
 the Gaussian(R) 03 system (copyright 2003, Gaussian, Inc.),
 the Gaussian(R) 98 system (copyright 1998, Gaussian, Inc.),
 the Gaussian(R) 94 system (copyright 1995, Gaussian, Inc.),
 the Gaussian 92(TM) system (copyright 1992, Gaussian, Inc.),
 the Gaussian 90(TM) system (copyright 1990, Gaussian, Inc.),
 the Gaussian 88(TM) system (copyright 1988, Gaussian, Inc.),
 the Gaussian 86(TM) system (copyright 1986, Carnegie Mellon
 University), and the Gaussian 82(TM) system (copyright 1983,
 Carnegie Mellon University). Gaussian is a federally registered
 trademark of Gaussian, Inc.
  
 This software contains proprietary and confidential information,
 including trade secrets, belonging to Gaussian, Inc.
  
 This software is provided under written license and may be
 used, copied, transmitted, or stored only in accord with that
 written license.
  
 The following legend is applicable only to US Government
 contracts under FAR:
  
                    RESTRICTED RIGHTS LEGEND
  
 Use, reproduction and disclosure by the US Government is
 subject to restrictions as set forth in subparagraphs (a)
 and (c) of the Commercial Computer Software - Restricted
 Rights clause in FAR 52.227-19.
  
 Gaussian, Inc.
 340 Quinnipiac St., Bldg. 40, Wallingford CT 06492
  
  
 ---------------------------------------------------------------
 Warning -- This program may not be used in any manner that
 competes with the business of Gaussian, Inc. or will provide
 assistance to any competitor of Gaussian, Inc.  The licensee
 of this program is prohibited from giving any competitor of
 Gaussian, Inc. access to this program.  By using this program,
 the user acknowledges that Gaussian, Inc. is engaged in the
 business of creating and licensing software in the field of
 computational chemistry and represents and warrants to the
 licensee that it is not a competitor of Gaussian, Inc. and that
 it will not use this program in any manner prohibited above.
 ---------------------------------------------------------------
  

 Cite this work as:
 Gaussian 16, Revision C.02,
 M. J. Frisch, G. W. Trucks, H. B. Schlegel, G. E. Scuseria, 
 M. A. Robb, J. R. Cheeseman, G. Scalmani, V. Barone, 
 G. A. Petersson, H. Nakatsuji, X. Li, M. Caricato, A. V. Marenich, 
 J. Bloino, B. G. Janesko, R. Gomperts, B. Mennucci, H. P. Hratchian, 
 J. V. Ortiz, A. F. Izmaylov, J. L. Sonnenberg, D. Williams-Young, 
 F. Ding, F. Lipparini, F. Egidi, J. Goings, B. Peng, A. Petrone, 
 T. Henderson, D. Ranasinghe, V. G. Zakrzewski, J. Gao, N. Rega, 
 G. Zheng, W. Liang, M. Hada, M. Ehara, K. Toyota, R. Fukuda, 
 J. Hasegawa, M. Ishida, T. Nakajima, Y. Honda, O. Kitao, H. Nakai, 
 T. Vreven, K. Throssell, J. A. Montgomery, Jr., J. E. Peralta, 
 F. Ogliaro, M. J. Bearpark, J. J. Heyd, E. N. Brothers, K. N. Kudin, 
 V. N. Staroverov, T. A. Keith, R. Kobayashi, J. Normand, 
 K. Raghavachari, A. P. Rendell, J. C. Burant, S. S. Iyengar, 
 J. Tomasi, M. Cossi, J. M. Millam, M. Klene, C. Adamo, R. Cammi, 
 J. W. Ochterski, R. L. Martin, K. Morokuma, O. Farkas, 
 J. B. Foresman, and D. J. Fox, Gaussian, Inc., Wallingford CT, 2019.
 
 ******************************************
 Gaussian 16:  AS64L-G16RevC.02  7-Dec-2021
                10-Apr-2024 
 ******************************************
 %nprocshared=128
 Will use up to  128 processors via shared memory.
 %mem=30GB
 %chk=tbu_nmeimidazole_chelpg.chk
 ----------------------------------------------------------------------
 # wb97xd/genecp scrf=(solvent=toluene,pcm) nosymm pop=(chelpg) scfcyc=
 300
 ----------------------------------------------------------------------
 1/38=1,172=1/1;
 2/12=2,15=1,17=6,18=5,40=1/2;
 3/5=7,11=2,16=1,17=8,25=1,30=1,70=2201,72=13,74=-58/1,2,3;
 4//1;
 5/5=2,7=300,38=5,53=13/2;
 6/7=2,8=2,9=2,10=2,15=8,20=3,28=1/1,2;
 99/5=1,9=1/99;
 -----------------------
 tbu_nmeimidazole_chelpg
 -----------------------
 Symbolic Z-matrix:
 Charge =  0 Multiplicity = 1
 C                     3.08647   1.24639  -0.00036 
 H                     3.59508   2.17453   0.19943 
 C                     3.19208  -0.00414   0.5731 
 N                     2.11711   1.17809  -0.95967 
 N                     2.27306  -0.83876  -0.06401 
 B                     4.0536   -0.42296   1.81879 
 C                     1.65368   2.26289  -1.80344 
 H                     0.91372   1.87372  -2.50204 
 H                     1.19132   3.04576  -1.19993 
 H                     2.48502   2.68463  -2.37026 
 C                     1.67576  -0.10868  -0.96485 
 H                     0.91781  -0.44602  -1.65814 
 C                     5.58307   0.08038   1.93665 
 C                     3.34516  -1.4356    2.857 
 C                     5.9102    0.78056   3.27142 
 H                     6.93953   1.15856   3.24426 
 H                     5.25281   1.63946   3.44454 
 H                     5.82962   0.11876   4.13136 
 C                     6.04436   1.03411   0.81902 
 H                     7.13001   1.17495   0.88224 
 H                     5.81253   0.65155  -0.1776 
 H                     5.59279   2.02537   0.91749 
 C                     6.44943  -1.1967    1.80389 
 H                     6.26693  -1.91671   2.60302 
 H                     6.27289  -1.70346   0.84898 
 H                     7.51085  -0.92325   1.83912 
 C                     3.36235  -2.83241   2.18497 
 H                     2.88494  -2.81048   1.20434 
 H                     4.38167  -3.21344   2.06966 
 H                     2.81569  -3.54282   2.81805 
 C                     3.96997  -1.58316   4.25488 
 H                     3.91783  -0.65117   4.82464 
 H                     3.4123   -2.33967   4.82042 
 H                     5.01209  -1.90832   4.22924 
 C                     1.87287  -1.02417   3.08129 
 H                     1.39876  -1.71502   3.78946 
 H                     1.80124  -0.01724   3.50815 
 H                     1.30055  -1.04265   2.15395 
 
                          Input orientation:                          
 ---------------------------------------------------------------------
 Center     Atomic      Atomic             Coordinates (Angstroms)
 Number     Number       Type             X           Y           Z
 ---------------------------------------------------------------------
      1          6           0        3.086473    1.246386   -0.000361
      2          1           0        3.595083    2.174530    0.199425
      3          6           0        3.192079   -0.004142    0.573095
      4          7           0        2.117114    1.178090   -0.959672
      5          7           0        2.273064   -0.838764   -0.064012
      6          5           0        4.053602   -0.422956    1.818792
      7          6           0        1.653677    2.262892   -1.803436
      8          1           0        0.913719    1.873717   -2.502041
      9          1           0        1.191315    3.045761   -1.199927
     10          1           0        2.485023    2.684625   -2.370257
     11          6           0        1.675757   -0.108681   -0.964852
     12          1           0        0.917812   -0.446017   -1.658142
     13          6           0        5.583065    0.080381    1.936652
     14          6           0        3.345159   -1.435602    2.857000
     15          6           0        5.910202    0.780564    3.271417
     16          1           0        6.939526    1.158561    3.244262
     17          1           0        5.252805    1.639455    3.444539
     18          1           0        5.829616    0.118760    4.131357
     19          6           0        6.044358    1.034113    0.819018
     20          1           0        7.130006    1.174947    0.882243
     21          1           0        5.812527    0.651551   -0.177604
     22          1           0        5.592790    2.025373    0.917491
     23          6           0        6.449425   -1.196703    1.803889
     24          1           0        6.266934   -1.916707    2.603019
     25          1           0        6.272893   -1.703459    0.848979
     26          1           0        7.510852   -0.923250    1.839118
     27          6           0        3.362348   -2.832408    2.184970
     28          1           0        2.884935   -2.810480    1.204338
     29          1           0        4.381667   -3.213438    2.069660
     30          1           0        2.815685   -3.542820    2.818053
     31          6           0        3.969968   -1.583163    4.254877
     32          1           0        3.917834   -0.651172    4.824641
     33          1           0        3.412298   -2.339673    4.820423
     34          1           0        5.012087   -1.908317    4.229235
     35          6           0        1.872868   -1.024167    3.081290
     36          1           0        1.398756   -1.715016    3.789456
     37          1           0        1.801242   -0.017242    3.508149
     38          1           0        1.300545   -1.042652    2.153953
 ---------------------------------------------------------------------
                    Distance matrix (angstroms):
                    1          2          3          4          5
     1  C    0.000000
     2  H    1.077056   0.000000
     3  C    1.379792   2.246921   0.000000
     4  N    1.365503   2.126215   2.214181   0.000000
     5  N    2.239093   3.301072   1.395381   2.212290   0.000000
     6  B    2.651671   3.095080   1.571429   3.746091   2.624531
     7  C    2.517393   2.790756   3.626848   1.450347   3.609641
     8  H    3.372359   3.818130   4.263067   2.076285   3.892218
     9  H    2.875471   2.914675   4.055684   2.098338   4.189274
    10  H    2.836667   2.845294   4.048792   2.096367   4.216392
    11  C    2.180956   3.201938   2.162277   1.360368   1.304343
    12  H    3.211784   4.181579   3.216514   2.136331   2.128898
    13  C    3.368168   3.369791   2.753769   4.648276   3.975373
    14  C    3.927402   4.489791   2.699765   4.786070   3.168267
    15  C    4.346834   4.091461   3.909590   5.696285   5.193850
    16  H    5.037987   4.635572   4.746617   6.397585   6.058866
    17  H    4.088378   3.683085   3.897845   5.426093   5.227844
    18  H    5.086007   4.967838   4.430907   6.389321   5.582744
    19  C    3.076609   2.771894   3.045316   4.313666   4.302333
    20  H    4.139354   3.736454   4.122268   5.340576   5.342314
    21  H    2.795821   2.716371   2.803610   3.813784   3.842101
    22  H    2.780449   2.128074   3.162428   4.040044   4.493018
    23  C    4.531385   4.699658   3.680674   5.660904   4.589027
    24  H    5.186336   5.445574   4.151293   6.284230   4.921993
    25  H    4.424504   4.757246   3.529193   5.370758   4.192837
    26  H    5.259861   5.255291   4.593405   6.429717   5.573461
    27  C    4.635552   5.391288   3.259789   5.246282   3.196729
    28  H    4.236753   5.134636   2.892808   4.602301   2.422966
    29  H    5.084540   5.757316   3.735560   5.795737   3.825943
    30  H    5.563567   6.336621   4.207583   6.086559   3.989067
    31  C    5.185939   5.541434   4.080924   6.184586   4.699619
    32  H    5.250955   5.429676   4.361308   6.328275   5.161336
    33  H    6.017137   6.462589   4.852113   6.889242   5.235292
    34  H    5.616905   5.909053   4.506181   6.695635   5.203668
    35  C    4.015572   4.637115   3.011945   4.608575   3.176076
    36  H    5.097156   5.730684   4.060551   5.607167   4.047400
    37  H    3.944391   4.355386   3.247944   4.635733   3.695653
    38  H    3.615287   4.408554   2.674980   3.910645   2.430377
                    6          7          8          9         10
     6  B    0.000000
     7  C    5.108224   0.000000
     8  H    5.814049   1.089515   0.000000
     9  H    5.416396   1.091277   1.773766   0.000000
    10  H    5.446616   1.091000   1.773115   1.781508   0.000000
    11  C    3.674451   2.515565   2.621746   3.200070   3.229959
    12  H    4.682177   2.810835   2.468471   3.532319   3.572699
    13  C    1.614465   5.847367   6.687364   6.157847   5.910111
    14  C    1.614069   6.185437   6.751505   6.417189   6.711209
    15  C    2.646799   6.787447   7.713147   6.884180   6.869191
    16  H    3.586324   7.391820   8.357140   7.506948   7.327639
    17  H    2.886985   6.394031   7.365077   6.328069   6.524174
    18  H    2.965744   7.566871   8.440846   7.648775   7.748610
    19  C    2.661899   5.259776   6.169102   5.628045   5.056138
    20  H    3.590916   6.195698   7.112235   6.565320   5.868028
    21  H    2.869491   4.747187   5.558329   5.304054   4.473634
    22  H    3.029151   4.793378   5.797405   4.989753   4.571883
    23  C    2.517712   6.926817   7.655884   7.393858   6.942959
    24  H    2.783010   7.626797   8.311791   8.052974   7.759419
    25  H    2.739613   6.641115   7.262663   7.250899   6.630741
    26  H    3.493320   7.597776   8.377998   8.057629   7.482951
    27  C    2.533254   6.692460   7.078945   7.122063   7.208151
    28  H    2.728297   6.025098   6.290043   6.553198   6.567636
    29  H    2.820878   7.241063   7.668524   7.748943   7.622156
    30  H    3.502073   7.510973   7.826861   7.886199   8.112273
    31  C    2.699553   7.540590   8.182091   7.674812   8.019444
    32  H    3.017556   7.586144   8.311440   7.576057   8.058973
    33  H    3.618683   8.255414   8.809883   8.377367   8.820957
    34  H    2.989185   8.066661   8.741309   8.283537   8.428195
    35  C    2.590551   5.891804   6.363276   5.946230   6.621876
    36  H    3.549809   6.867982   7.259284   6.899418   7.647149
    37  H    2.844584   5.782190   6.362846   5.649777   6.505636
    38  H    2.841774   5.168390   5.507551   5.289193   5.980306
                   11         12         13         14         15
    11  C    0.000000
    12  H    1.081169   0.000000
    13  C    4.870475   5.913055   0.000000
    14  C    4.376548   5.220900   2.855428   0.000000
    15  C    6.055349   7.122430   1.542359   3.415052   0.000000
    16  H    6.857828   7.929015   2.170784   4.449621   1.096871
    17  H    5.940874   7.012753   2.193971   3.666100   1.095370
    18  H    6.578573   7.613349   2.208844   3.195709   1.088106
    19  C    4.855187   5.882906   1.539968   4.187904   2.469118
    20  H    5.899855   6.904523   2.168612   5.003968   2.711386
    21  H    4.279086   5.230190   2.202037   4.433163   3.452815
    22  H    4.841544   5.881928   2.195855   4.559812   2.681654
    23  C    5.624733   6.568708   1.548919   3.286728   2.520711
    24  H    6.089135   6.995250   2.213613   2.971992   2.801657
    25  H    5.192972   6.045139   2.200223   3.560270   3.488570
    26  H    6.524883   7.478419   2.175581   4.318748   2.741631
    27  C    4.492734   5.141997   3.671183   1.550157   4.552526
    28  H    3.669770   4.201672   4.021600   2.198497   5.130366
    29  H    5.115636   5.792531   3.508603   2.203396   4.442149
    30  H    5.234799   5.764411   4.643581   2.173069   5.336031
    31  C    5.889234   6.750744   3.277747   1.538252   3.212306
    32  H    6.232129   7.146236   3.413011   2.194288   2.903774
    33  H    6.439123   7.195846   4.345690   2.162610   4.286586
    34  H    6.430267   7.318649   3.088183   2.210235   2.992341
    35  C    4.153099   4.869148   4.036804   1.545065   4.426428
    36  H    5.025981   5.614088   4.915768   2.176242   5.181643
    37  H    4.475695   5.258789   4.096501   2.195318   4.192385
    38  H    3.277199   3.877438   4.432652   2.197528   5.081514
                   16         17         18         19         20
    16  H    0.000000
    17  H    1.765332   0.000000
    18  H    1.760688   1.765487   0.000000
    19  C    2.588170   2.808266   3.443193   0.000000
    20  H    2.369744   3.210142   3.655583   1.096569   0.000000
    21  H    3.638180   3.795940   4.341809   1.092408   1.770020
    22  H    2.824699   2.578855   3.744355   1.093712   1.757128
    23  C    2.803951   3.488183   2.744397   2.471961   2.633884
    24  H    3.212607   3.792480   2.582671   3.455364   3.642017
    25  H    3.791166   4.353457   3.780342   2.747258   3.003493
    26  H    2.575807   3.774071   3.027656   2.649996   2.337324
    27  C    5.463162   5.015765   4.311059   4.899897   5.652543
    28  H    6.029451   5.516088   5.081243   4.991124   5.831638
    29  H    5.199683   5.118569   4.177403   4.729729   5.312368
    30  H    6.268230   5.760904   4.920947   5.947166   6.679675
    31  C    4.166133   3.561964   2.523904   4.791488   5.382162
    32  H    3.860486   2.988946   2.174477   4.838110   5.403264
    33  H    5.211839   4.594995   3.515982   5.858448   6.456250
    34  H    3.753789   3.641480   2.187916   4.620937   5.019408
    35  C    5.519229   4.318658   4.250268   5.172593   6.108143
    36  H    6.265366   5.121048   4.807510   6.161398   7.046347
    37  H    5.277699   3.829096   4.078564   5.132330   6.059078
    38  H    6.150790   4.947693   5.076563   5.347781   6.365344
                   21         22         23         24         25
    21  H    0.000000
    22  H    1.770566   0.000000
    23  C    2.783522   3.449826   0.000000
    24  H    3.812388   4.339985   1.091017   0.000000
    25  H    2.609958   3.790966   1.095362   1.766965   0.000000
    26  H    3.071070   3.636308   1.096652   1.765739   1.766817
    27  C    4.870637   5.493579   3.514370   3.074068   3.395684
    28  H    4.739854   5.549796   3.958450   3.767367   3.581904
    29  H    4.694219   5.499041   2.900599   2.349514   2.710504
    30  H    5.962195   6.506091   4.442619   3.821204   4.383239
    31  C    5.294890   5.176218   3.507763   2.848849   4.113159
    32  H    5.505398   5.023464   3.978882   3.472096   4.739145
    33  H    6.299904   6.248284   4.430575   3.639331   4.935599
    34  H    5.158862   5.174822   2.907686   2.054091   3.613548
    35  C    5.380459   5.274423   4.754618   4.509234   4.980449
    36  H    6.389020   6.310992   5.451640   5.014725   5.692429
    37  H    5.488394   5.025895   5.089326   4.936561   5.469020
    38  H    5.353920   5.418947   5.163065   5.062672   5.183037
                   26         27         28         29         30
    26  H    0.000000
    27  C    4.579802   0.000000
    28  H    5.036238   1.090891   0.000000
    29  H    3.884573   1.094300   1.775208   0.000000
    30  H    5.464893   1.097415   1.773469   1.766602   0.000000
    31  C    4.336962   2.492856   3.462570   2.757257   2.690184
    32  H    4.679439   3.469037   4.340056   3.790814   3.688191
    33  H    5.262374   2.681584   3.684541   3.044641   2.411015
    34  H    3.595392   2.784709   3.806399   2.600872   3.080133
    35  C    5.774083   2.508321   2.781752   3.479996   2.702186
    36  H    6.464397   2.771035   3.176729   3.755093   2.508422
    37  H    6.017156   3.480376   3.779433   4.352415   3.732965
    38  H    6.219429   2.730425   2.556810   3.769977   2.997919
                   31         32         33         34         35
    31  C    0.000000
    32  H    1.093598   0.000000
    33  H    1.096880   1.762561   0.000000
    34  H    1.091968   1.769834   1.759232   0.000000
    35  C    2.467309   2.712984   2.669267   3.457484   0.000000
    36  H    2.616321   2.923889   2.346794   3.645124   1.097066
    37  H    2.777244   2.571960   3.116288   3.795478   1.096010
    38  H    3.439746   3.759792   3.640306   4.339552   1.089885
                   36         37         38
    36  H    0.000000
    37  H    1.767361   0.000000
    38  H    1.771042   1.770878   0.000000
 Symmetry turned off by external request.
 Stoichiometry    C12H23BN2
 Framework group  C1[X(C12H23BN2)]
 Deg. of freedom   108
 Full point group                 C1      NOp   1
 Rotational constants (GHZ):           0.8294716           0.4356478           0.3389364
 General basis read from cards:  (5D, 7F)
 ======================================================================================================
                                       Pseudopotential Parameters
 ======================================================================================================
  Center     Atomic      Valence      Angular      Power
  Number     Number     Electrons     Momentum     of R      Exponent        Coefficient   SO-Coeffient
 ======================================================================================================
    1          6
                                   No pseudopotential on this center.
    2          1
                                   No pseudopotential on this center.
    3          6
                                   No pseudopotential on this center.
    4          7
                                   No pseudopotential on this center.
    5          7
                                   No pseudopotential on this center.
    6          5
                                   No pseudopotential on this center.
    7          6
                                   No pseudopotential on this center.
    8          1
                                   No pseudopotential on this center.
    9          1
                                   No pseudopotential on this center.
   10          1
                                   No pseudopotential on this center.
   11          6
                                   No pseudopotential on this center.
   12          1
                                   No pseudopotential on this center.
   13          6
                                   No pseudopotential on this center.
   14          6
                                   No pseudopotential on this center.
   15          6
                                   No pseudopotential on this center.
   16          1
                                   No pseudopotential on this center.
   17          1
                                   No pseudopotential on this center.
   18          1
                                   No pseudopotential on this center.
   19          6
                                   No pseudopotential on this center.
   20          1
                                   No pseudopotential on this center.
   21          1
                                   No pseudopotential on this center.
   22          1
                                   No pseudopotential on this center.
   23          6
                                   No pseudopotential on this center.
   24          1
                                   No pseudopotential on this center.
   25          1
                                   No pseudopotential on this center.
   26          1
                                   No pseudopotential on this center.
   27          6
                                   No pseudopotential on this center.
   28          1
                                   No pseudopotential on this center.
   29          1
                                   No pseudopotential on this center.
   30          1
                                   No pseudopotential on this center.
   31          6
                                   No pseudopotential on this center.
   32          1
                                   No pseudopotential on this center.
   33          1
                                   No pseudopotential on this center.
   34          1
                                   No pseudopotential on this center.
   35          6
                                   No pseudopotential on this center.
   36          1
                                   No pseudopotential on this center.
   37          1
                                   No pseudopotential on this center.
   38          1
                                   No pseudopotential on this center.
 ======================================================================================================
   491 basis functions,   747 primitive gaussians,   506 cartesian basis functions
    57 alpha electrons       57 beta electrons
       nuclear repulsion energy      1046.0911580403 Hartrees.
 NAtoms=   38 NActive=   38 NUniq=   38 SFac= 1.00D+00 NAtFMM=   60 NAOKFM=F Big=F
 Integral buffers will be    131072 words long.
 Raffenetti 2 integral format.
 Two-electron integral symmetry is turned off.
 Nuclear repulsion after empirical dispersion term =     1046.0561706997 Hartrees.
 ------------------------------------------------------------------------------
 Polarizable Continuum Model (PCM)
 =================================
 Model                : PCM.
 Atomic radii         : UFF (Universal Force Field).
 Polarization charges : Total charges.
 Charge compensation  : None.
 Solution method      : On-the-fly selection.
 Cavity type          : Scaled VdW (van der Waals Surface) (Alpha=1.100).
 Cavity algorithm     : GePol (No added spheres)
                        Default sphere list used, NSphG=   38.
                        Lebedev-Laikov grids with approx.  5.0 points / Ang**2.
                        Smoothing algorithm: York/Karplus (Gamma=1.0000).
                        Polarization charges: spherical gaussians, with
                                              point-specific exponents (IZeta= 3).
                        Self-potential: point-specific (ISelfS= 7).
                        Self-field    : sphere-specific E.n sum rule (ISelfD= 2).
 Solvent              : Toluene, Eps=   2.374100 Eps(inf)=   2.238315
 ------------------------------------------------------------------------------
 One-electron integrals computed using PRISM.
   1 Symmetry operations used in ECPInt.
 ECPInt:  NShTT=   21115 NPrTT=   63885 LenC2=   20021 LenP2D=   44965.
 LDataN:  DoStor=T MaxTD1= 4 Len=   56
 Number of processors reduced to  87 by ecpmxn.
 NBasis=   491 RedAO= T EigKep=  2.15D-06  NBF=   491
 NBsUse=   491 1.00D-06 EigRej= -1.00D+00 NBFU=   491
 ExpMin= 3.15D-02 ExpMax= 6.29D+03 ExpMxC= 9.49D+02 IAcc=3 IRadAn=         5 AccDes= 0.00D+00
 Harris functional with IExCor= 4639 and IRadAn=       5 diagonalized for initial guess.
 HarFok:  IExCor= 4639 AccDes= 0.00D+00 IRadAn=         5 IDoV= 1 UseB2=F ITyADJ=14
 ICtDFT=  3500011 ScaDFX=  1.000000  1.000000  1.000000  1.000000
 FoFCou: FMM=F IPFlag=           0 FMFlag=      100000 FMFlg1=           0
         NFxFlg=           0 DoJE=T BraDBF=F KetDBF=T FulRan=T
         wScrn=  0.000000 ICntrl=       500 IOpCl=  0 I1Cent=   200000004 NGrid=           0
         NMat0=    1 NMatS0=      1 NMatT0=    0 NMatD0=    1 NMtDS0=    0 NMtDT0=    0
 Symmetry not used in FoFCou.
 Requested convergence on RMS density matrix=1.00D-08 within 300 cycles.
 Requested convergence on MAX density matrix=1.00D-06.
 Requested convergence on             energy=1.00D-06.
 No special actions if energy rises.
 Inv3:  Mode=1 IEnd=    16216875.
 Iteration    1 A*A^-1 deviation from unit magnitude is 6.44D-15 for   2304.
 Iteration    1 A*A^-1 deviation from orthogonality  is 4.21D-15 for   2311   1896.
 Iteration    1 A^-1*A deviation from unit magnitude is 6.44D-15 for   2304.
 Iteration    1 A^-1*A deviation from orthogonality  is 1.47D-15 for   1743    979.
 Error on total polarization charges =  0.00967
 SCF Done:  E(RwB97XD) =  -605.467937820     A.U. after   15 cycles
            NFock= 15  Conv=0.43D-08     -V/T= 2.0048

 **********************************************************************

            Population analysis using the SCF Density.

 **********************************************************************

 Alpha  occ. eigenvalues --  -14.49771 -14.41186 -10.33699 -10.33484 -10.31341
 Alpha  occ. eigenvalues --  -10.27980 -10.27201 -10.26691 -10.26500 -10.26292
 Alpha  occ. eigenvalues --  -10.26066 -10.25701 -10.25435 -10.25277  -6.83964
 Alpha  occ. eigenvalues --   -1.12963  -0.98999  -0.90353  -0.88600  -0.85508
 Alpha  occ. eigenvalues --   -0.81749  -0.77831  -0.77389  -0.76436  -0.76272
 Alpha  occ. eigenvalues --   -0.70151  -0.67170  -0.65690  -0.62814  -0.62157
 Alpha  occ. eigenvalues --   -0.57154  -0.56327  -0.54200  -0.53427  -0.52120
 Alpha  occ. eigenvalues --   -0.51674  -0.51399  -0.50435  -0.50158  -0.49796
 Alpha  occ. eigenvalues --   -0.48819  -0.47258  -0.46592  -0.45580  -0.45230
 Alpha  occ. eigenvalues --   -0.44740  -0.43890  -0.43225  -0.41285  -0.40541
 Alpha  occ. eigenvalues --   -0.39567  -0.39016  -0.37093  -0.35676  -0.34471
 Alpha  occ. eigenvalues --   -0.34063  -0.30844
 Alpha virt. eigenvalues --    0.03430   0.03770   0.04608   0.05105   0.05394
 Alpha virt. eigenvalues --    0.06330   0.06473   0.06826   0.07303   0.07563
 Alpha virt. eigenvalues --    0.08230   0.08421   0.08761   0.09359   0.09563
 Alpha virt. eigenvalues --    0.09766   0.10007   0.10756   0.10927   0.11262
 Alpha virt. eigenvalues --    0.12071   0.12250   0.12448   0.13384   0.13586
 Alpha virt. eigenvalues --    0.13994   0.14298   0.14686   0.14920   0.15767
 Alpha virt. eigenvalues --    0.16065   0.16343   0.16512   0.16669   0.16971
 Alpha virt. eigenvalues --    0.17352   0.18163   0.18247   0.18688   0.18943
 Alpha virt. eigenvalues --    0.19028   0.19225   0.19510   0.19804   0.19980
 Alpha virt. eigenvalues --    0.20282   0.20620   0.20916   0.21094   0.21231
 Alpha virt. eigenvalues --    0.21565   0.21858   0.22242   0.22300   0.22500
 Alpha virt. eigenvalues --    0.22763   0.23200   0.23334   0.23571   0.23961
 Alpha virt. eigenvalues --    0.24331   0.24985   0.25261   0.25566   0.25791
 Alpha virt. eigenvalues --    0.26243   0.26483   0.26814   0.27222   0.27576
 Alpha virt. eigenvalues --    0.27807   0.28343   0.29020   0.29358   0.29648
 Alpha virt. eigenvalues --    0.29866   0.30062   0.30281   0.30748   0.31275
 Alpha virt. eigenvalues --    0.31442   0.31955   0.32380   0.32496   0.32968
 Alpha virt. eigenvalues --    0.33338   0.33897   0.34121   0.34427   0.35132
 Alpha virt. eigenvalues --    0.35344   0.35906   0.36014   0.36506   0.36646
 Alpha virt. eigenvalues --    0.36944   0.37971   0.38184   0.38817   0.39214
 Alpha virt. eigenvalues --    0.39695   0.40078   0.40226   0.40839   0.40958
 Alpha virt. eigenvalues --    0.41289   0.42100   0.42628   0.43167   0.43977
 Alpha virt. eigenvalues --    0.44124   0.44597   0.45537   0.45697   0.46782
 Alpha virt. eigenvalues --    0.48986   0.49305   0.50534   0.51026   0.52808
 Alpha virt. eigenvalues --    0.54145   0.54517   0.54784   0.55367   0.56728
 Alpha virt. eigenvalues --    0.56996   0.57401   0.58302   0.59153   0.60474
 Alpha virt. eigenvalues --    0.61095   0.62025   0.62599   0.63542   0.64604
 Alpha virt. eigenvalues --    0.65273   0.66489   0.66552   0.67024   0.68926
 Alpha virt. eigenvalues --    0.69371   0.69533   0.69830   0.70844   0.70972
 Alpha virt. eigenvalues --    0.71105   0.71519   0.73046   0.73121   0.74188
 Alpha virt. eigenvalues --    0.74846   0.75660   0.75835   0.76095   0.77198
 Alpha virt. eigenvalues --    0.77489   0.77918   0.78110   0.78644   0.79068
 Alpha virt. eigenvalues --    0.79320   0.79911   0.80018   0.80937   0.81501
 Alpha virt. eigenvalues --    0.82418   0.82477   0.83171   0.83959   0.84520
 Alpha virt. eigenvalues --    0.84667   0.86134   0.86809   0.87628   0.88579
 Alpha virt. eigenvalues --    0.88724   0.89119   0.89927   0.90576   0.91127
 Alpha virt. eigenvalues --    0.91681   0.92933   0.93698   0.94404   0.96995
 Alpha virt. eigenvalues --    0.98370   0.98969   0.99287   1.00905   1.01238
 Alpha virt. eigenvalues --    1.04085   1.04601   1.06204   1.07420   1.08156
 Alpha virt. eigenvalues --    1.10030   1.10545   1.11249   1.12759   1.14463
 Alpha virt. eigenvalues --    1.15604   1.18336   1.19356   1.19962   1.20665
 Alpha virt. eigenvalues --    1.23213   1.23708   1.25199   1.26002   1.27553
 Alpha virt. eigenvalues --    1.28381   1.31226   1.33041   1.34414   1.35841
 Alpha virt. eigenvalues --    1.37803   1.39125   1.39989   1.42664   1.44956
 Alpha virt. eigenvalues --    1.47467   1.49214   1.49502   1.50834   1.51771
 Alpha virt. eigenvalues --    1.53050   1.54196   1.54434   1.55718   1.56903
 Alpha virt. eigenvalues --    1.57684   1.58216   1.59618   1.61469   1.62691
 Alpha virt. eigenvalues --    1.63503   1.63878   1.64130   1.64756   1.65836
 Alpha virt. eigenvalues --    1.66256   1.66860   1.67397   1.67624   1.70245
 Alpha virt. eigenvalues --    1.70936   1.71311   1.71693   1.72702   1.73607
 Alpha virt. eigenvalues --    1.74671   1.76008   1.76676   1.77524   1.78710
 Alpha virt. eigenvalues --    1.78886   1.79387   1.79520   1.80125   1.81078
 Alpha virt. eigenvalues --    1.81951   1.82388   1.82832   1.83532   1.84188
 Alpha virt. eigenvalues --    1.85950   1.87160   1.87429   1.87701   1.89263
 Alpha virt. eigenvalues --    1.89717   1.90566   1.91499   1.91930   1.93555
 Alpha virt. eigenvalues --    1.95021   1.95486   1.95626   1.97366   1.98786
 Alpha virt. eigenvalues --    2.02097   2.05225   2.06624   2.07594   2.08477
 Alpha virt. eigenvalues --    2.09445   2.09977   2.12042   2.13720   2.15256
 Alpha virt. eigenvalues --    2.15587   2.16857   2.17244   2.20522   2.21002
 Alpha virt. eigenvalues --    2.22666   2.23375   2.24236   2.24781   2.25820
 Alpha virt. eigenvalues --    2.27012   2.28216   2.32039   2.32367   2.34139
 Alpha virt. eigenvalues --    2.34821   2.36902   2.37928   2.39404   2.41868
 Alpha virt. eigenvalues --    2.44986   2.46107   2.48282   2.50202   2.51550
 Alpha virt. eigenvalues --    2.53705   2.54465   2.54858   2.55280   2.56319
 Alpha virt. eigenvalues --    2.56997   2.59102   2.59501   2.60077   2.60776
 Alpha virt. eigenvalues --    2.62547   2.62883   2.63162   2.63626   2.64954
 Alpha virt. eigenvalues --    2.65550   2.65641   2.66161   2.66970   2.67106
 Alpha virt. eigenvalues --    2.67929   2.68584   2.69204   2.69965   2.71520
 Alpha virt. eigenvalues --    2.72042   2.72370   2.73422   2.74390   2.75727
 Alpha virt. eigenvalues --    2.76521   2.77234   2.78153   2.80855   2.83234
 Alpha virt. eigenvalues --    2.84216   2.85303   2.86751   2.87460   2.88758
 Alpha virt. eigenvalues --    2.89486   2.91592   2.91826   2.93403   2.94095
 Alpha virt. eigenvalues --    2.94216   2.95912   2.97901   2.99000   3.02019
 Alpha virt. eigenvalues --    3.04292   3.05899   3.06688   3.08661   3.09418
 Alpha virt. eigenvalues --    3.10541   3.14540   3.16495   3.17606   3.20165
 Alpha virt. eigenvalues --    3.21306   3.22402   3.25138   3.26088   3.28097
 Alpha virt. eigenvalues --    3.34188   3.38145   3.40183   3.45179   3.52940
 Alpha virt. eigenvalues --    3.55109   3.63190   3.68974   3.71529   3.79470
 Alpha virt. eigenvalues --    3.84560   3.86285   3.87220   3.88732   3.88943
 Alpha virt. eigenvalues --    3.90215   3.90837   3.91370   3.92213   3.93529
 Alpha virt. eigenvalues --    3.93693   3.94085   3.94584   3.96580   3.97260
 Alpha virt. eigenvalues --    4.01293   4.04829   4.07255   4.12159   4.15506
 Alpha virt. eigenvalues --    4.21104   4.38411   4.39641   4.40284   4.42766
 Alpha virt. eigenvalues --    4.69511   4.89161   5.09954   5.41026  14.81549
 Alpha virt. eigenvalues --   23.91757  23.98955  24.00810  24.06192  24.10851
 Alpha virt. eigenvalues --   24.12535  24.12758  24.13807  24.14443  24.15883
 Alpha virt. eigenvalues --   24.17464  24.27199  35.65402  35.84866
          Condensed to atoms (all electrons):
               1          2          3          4          5          6
     1  C    8.555677   0.371616  -2.230903   0.248651  -0.025435  -0.792933
     2  H    0.371616   0.496516   0.011254  -0.094017   0.011415   0.000275
     3  C   -2.230903   0.011254  10.308811  -0.389828  -0.214958  -0.069521
     4  N    0.248651  -0.094017  -0.389828   6.772040   0.019410   0.082315
     5  N   -0.025435   0.011415  -0.214958   0.019410   7.004101   0.039876
     6  B   -0.792933   0.000275  -0.069521   0.082315   0.039876   9.642942
     7  C    0.000476  -0.028488  -0.118941   0.189276   0.015329   0.003964
     8  H   -0.017962  -0.001955   0.019006  -0.053088   0.008118   0.005433
     9  H   -0.009490  -0.003798   0.009646  -0.033246  -0.002684  -0.003590
    10  H   -0.004159   0.001426   0.004708  -0.046978   0.000006   0.000871
    11  C   -0.121253   0.051369  -0.158237   0.217312   0.269961  -0.276717
    12  H    0.022516   0.004302   0.084855  -0.105275  -0.081542  -0.032475
    13  C    0.212099  -0.013941  -0.477075  -0.036371  -0.064389   1.593062
    14  C    0.029324  -0.017183  -0.696570   0.025221   0.035419   0.899004
    15  C    0.169017   0.000543  -0.248035   0.016049   0.028420  -1.440852
    16  H    0.003133  -0.000682   0.006650   0.000473   0.000847  -0.010994
    17  H    0.002033  -0.004396  -0.006915   0.003272   0.004112  -0.128437
    18  H   -0.010650   0.001088  -0.008563   0.000034  -0.000204   0.089670
    19  C   -0.275540   0.023763   0.193197   0.030395   0.065182  -0.389694
    20  H   -0.028189   0.002058   0.022393  -0.000748   0.001683   0.136466
    21  H    0.052264  -0.011236  -0.053885   0.013953   0.001949  -0.111300
    22  H    0.050086  -0.010435  -0.088271   0.006415  -0.001432  -0.072859
    23  C    0.224196  -0.018353   0.051120   0.022140   0.017236  -2.005488
    24  H    0.007857   0.000076  -0.055648   0.000758   0.003162   0.037864
    25  H    0.038808  -0.000858   0.014496   0.000964   0.000316  -0.280134
    26  H    0.010428  -0.001147  -0.003003   0.000532   0.001050  -0.001957
    27  C    0.042175   0.001376   0.592544  -0.006862  -0.082534  -1.467176
    28  H   -0.034790   0.000033   0.092525  -0.007570  -0.006300  -0.041840
    29  H   -0.006333  -0.000497  -0.036246   0.002796   0.012033   0.024413
    30  H    0.002027   0.000196   0.016872  -0.000690  -0.005181   0.012953
    31  C   -0.046327  -0.003984  -0.128236   0.006100   0.040057  -0.197076
    32  H    0.014728  -0.000597   0.003343   0.001289   0.001427  -0.203138
    33  H   -0.006549   0.000203   0.008612  -0.000228   0.002117   0.075990
    34  H    0.000778  -0.000417   0.006540   0.000477   0.003533  -0.026508
    35  C    0.014122   0.017190   0.235173  -0.030937  -0.040932  -0.400212
    36  H    0.008695   0.000011   0.003946   0.001232  -0.003806   0.034555
    37  H    0.006405   0.003035   0.050199  -0.008838  -0.008036  -0.127009
    38  H    0.013242   0.001449   0.027306  -0.005879   0.005564  -0.065499
               7          8          9         10         11         12
     1  C    0.000476  -0.017962  -0.009490  -0.004159  -0.121253   0.022516
     2  H   -0.028488  -0.001955  -0.003798   0.001426   0.051369   0.004302
     3  C   -0.118941   0.019006   0.009646   0.004708  -0.158237   0.084855
     4  N    0.189276  -0.053088  -0.033246  -0.046978   0.217312  -0.105275
     5  N    0.015329   0.008118  -0.002684   0.000006   0.269961  -0.081542
     6  B    0.003964   0.005433  -0.003590   0.000871  -0.276717  -0.032475
     7  C    5.187910   0.410147   0.416849   0.413840  -0.110450  -0.021686
     8  H    0.410147   0.502916  -0.023902  -0.024680   0.009959  -0.005603
     9  H    0.416849  -0.023902   0.508264  -0.046414  -0.016471   0.000650
    10  H    0.413840  -0.024680  -0.046414   0.514882  -0.012043  -0.000455
    11  C   -0.110450   0.009959  -0.016471  -0.012043   5.694042   0.431658
    12  H   -0.021686  -0.005603   0.000650  -0.000455   0.431658   0.462696
    13  C    0.007715   0.000399   0.001005  -0.003239  -0.121481  -0.002395
    14  C    0.014571   0.000808  -0.000233   0.000930  -0.256402  -0.015141
    15  C    0.004924   0.000225  -0.000020   0.000115  -0.007946  -0.000806
    16  H    0.000089   0.000007  -0.000001   0.000021  -0.000249  -0.000032
    17  H    0.000929   0.000041   0.000020   0.000040  -0.002025  -0.000216
    18  H    0.000026   0.000001  -0.000027   0.000033   0.000510   0.000026
    19  C   -0.004187   0.000159   0.000214   0.000817   0.056854   0.000226
    20  H   -0.000822   0.000018   0.000049  -0.000121   0.002651   0.000091
    21  H    0.003196   0.000007   0.000816  -0.001231  -0.018699  -0.001716
    22  H    0.004623   0.000037   0.000132   0.000051  -0.015624  -0.000543
    23  C    0.002334   0.000154  -0.000030   0.000116  -0.028996  -0.002151
    24  H    0.000350   0.000028  -0.000017   0.000021  -0.001739  -0.000096
    25  H    0.000723   0.000048  -0.000020   0.000026  -0.001774  -0.000288
    26  H    0.000247   0.000014  -0.000002  -0.000014  -0.001196  -0.000097
    27  C   -0.005188   0.000043  -0.000141  -0.000049   0.077754   0.006501
    28  H   -0.002463   0.000047  -0.000263   0.000072  -0.006729   0.001018
    29  H    0.000190  -0.000000   0.000043  -0.000016   0.003860  -0.000335
    30  H    0.000009   0.000013  -0.000003   0.000002  -0.001785   0.000124
    31  C   -0.000180   0.000072  -0.000219   0.000238  -0.025701  -0.002187
    32  H    0.000109   0.000012  -0.000025   0.000004  -0.000472  -0.000049
    33  H   -0.000039   0.000000  -0.000002   0.000000  -0.000757  -0.000089
    34  H    0.000031   0.000005   0.000004  -0.000002   0.000927  -0.000031
    35  C   -0.008750  -0.000509  -0.002158   0.000577   0.229354   0.014408
    36  H   -0.000044  -0.000030  -0.000129   0.000050   0.001788   0.000220
    37  H   -0.000920  -0.000078   0.000117  -0.000081   0.017199   0.001090
    38  H   -0.001144   0.000061  -0.000576   0.000286  -0.012886  -0.001352
              13         14         15         16         17         18
     1  C    0.212099   0.029324   0.169017   0.003133   0.002033  -0.010650
     2  H   -0.013941  -0.017183   0.000543  -0.000682  -0.004396   0.001088
     3  C   -0.477075  -0.696570  -0.248035   0.006650  -0.006915  -0.008563
     4  N   -0.036371   0.025221   0.016049   0.000473   0.003272   0.000034
     5  N   -0.064389   0.035419   0.028420   0.000847   0.004112  -0.000204
     6  B    1.593062   0.899004  -1.440852  -0.010994  -0.128437   0.089670
     7  C    0.007715   0.014571   0.004924   0.000089   0.000929   0.000026
     8  H    0.000399   0.000808   0.000225   0.000007   0.000041   0.000001
     9  H    0.001005  -0.000233  -0.000020  -0.000001   0.000020  -0.000027
    10  H   -0.003239   0.000930   0.000115   0.000021   0.000040   0.000033
    11  C   -0.121481  -0.256402  -0.007946  -0.000249  -0.002025   0.000510
    12  H   -0.002395  -0.015141  -0.000806  -0.000032  -0.000216   0.000026
    13  C    6.565904  -0.086917  -0.441284  -0.053909  -0.050403   0.050829
    14  C   -0.086917   6.677226   0.271950   0.005868   0.023520  -0.067338
    15  C   -0.441284   0.271950   6.626214   0.427473   0.453689   0.312649
    16  H   -0.053909   0.005868   0.427473   0.552798  -0.031325  -0.039159
    17  H   -0.050403   0.023520   0.453689  -0.031325   0.542157  -0.035437
    18  H    0.050829  -0.067338   0.312649  -0.039159  -0.035437   0.564493
    19  C   -0.040995  -0.155252  -0.280522  -0.039689   0.006156   0.012940
    20  H    0.002728   0.001607  -0.072231   0.000972  -0.003422   0.005228
    21  H   -0.029686   0.029166   0.066427   0.001129   0.004274  -0.004701
    22  H    0.033975   0.018070   0.031220   0.005495   0.006458  -0.002936
    23  C   -0.730761   0.216313   0.533059   0.005990   0.055835  -0.061718
    24  H    0.062975   0.067683   0.040488  -0.000376   0.001255  -0.001605
    25  H   -0.084735  -0.033462   0.050089   0.003291  -0.001328  -0.002695
    26  H   -0.024501  -0.006895  -0.031719   0.000905  -0.000088   0.001389
    27  C   -0.175988  -0.591026   0.065448   0.000743  -0.009602   0.003834
    28  H    0.027689  -0.113534  -0.024337  -0.000382  -0.001768  -0.000121
    29  H   -0.059806   0.053254   0.031059  -0.000252   0.001687   0.000750
    30  H    0.011027   0.008713  -0.003170   0.000127  -0.000274  -0.001595
    31  C    0.034697   0.055660   0.009896   0.007553  -0.011389   0.045477
    32  H   -0.104073   0.045512   0.083971   0.002039   0.002213  -0.003530
    33  H    0.003334  -0.033149  -0.007803   0.000399  -0.001701   0.002296
    34  H    0.092017   0.003290  -0.048671  -0.001623   0.003115  -0.001986
    35  C   -0.128891  -0.570473  -0.082918  -0.001488  -0.005711   0.014198
    36  H    0.002410  -0.007892   0.000439   0.000092   0.000612  -0.002257
    37  H    0.000342  -0.050717  -0.015449  -0.000372  -0.004623   0.001883
    38  H    0.006286  -0.010509  -0.006184  -0.000331  -0.001606   0.001505
              19         20         21         22         23         24
     1  C   -0.275540  -0.028189   0.052264   0.050086   0.224196   0.007857
     2  H    0.023763   0.002058  -0.011236  -0.010435  -0.018353   0.000076
     3  C    0.193197   0.022393  -0.053885  -0.088271   0.051120  -0.055648
     4  N    0.030395  -0.000748   0.013953   0.006415   0.022140   0.000758
     5  N    0.065182   0.001683   0.001949  -0.001432   0.017236   0.003162
     6  B   -0.389694   0.136466  -0.111300  -0.072859  -2.005488   0.037864
     7  C   -0.004187  -0.000822   0.003196   0.004623   0.002334   0.000350
     8  H    0.000159   0.000018   0.000007   0.000037   0.000154   0.000028
     9  H    0.000214   0.000049   0.000816   0.000132  -0.000030  -0.000017
    10  H    0.000817  -0.000121  -0.001231   0.000051   0.000116   0.000021
    11  C    0.056854   0.002651  -0.018699  -0.015624  -0.028996  -0.001739
    12  H    0.000226   0.000091  -0.001716  -0.000543  -0.002151  -0.000096
    13  C   -0.040995   0.002728  -0.029686   0.033975  -0.730761   0.062975
    14  C   -0.155252   0.001607   0.029166   0.018070   0.216313   0.067683
    15  C   -0.280522  -0.072231   0.066427   0.031220   0.533059   0.040488
    16  H   -0.039689   0.000972   0.001129   0.005495   0.005990  -0.000376
    17  H    0.006156  -0.003422   0.004274   0.006458   0.055835   0.001255
    18  H    0.012940   0.005228  -0.004701  -0.002936  -0.061718  -0.001605
    19  C    6.381140   0.387184   0.392138   0.284939  -0.174934   0.008843
    20  H    0.387184   0.569401  -0.042130  -0.042012  -0.092286   0.005554
    21  H    0.392138  -0.042130   0.570694  -0.031992   0.011268   0.002697
    22  H    0.284939  -0.042012  -0.031992   0.626463   0.085360  -0.007977
    23  C   -0.174934  -0.092286   0.011268   0.085360   7.253321   0.243633
    24  H    0.008843   0.005554   0.002697  -0.007977   0.243633   0.585152
    25  H    0.008048  -0.012509   0.008111   0.004603   0.564467  -0.029676
    26  H   -0.054147   0.001579   0.001340   0.007057   0.448490  -0.045578
    27  C   -0.021671   0.001253  -0.014601  -0.003037   0.108762  -0.011504
    28  H   -0.005285   0.000765  -0.002806  -0.000996  -0.041108  -0.000491
    29  H    0.011945  -0.001083   0.001629   0.000234   0.043735  -0.010832
    30  H   -0.001787  -0.000123   0.000257  -0.000067   0.001735   0.000275
    31  C   -0.010700   0.000469  -0.003800   0.009078   0.029459  -0.021095
    32  H   -0.007367  -0.001345   0.000121   0.002088   0.071955  -0.001642
    33  H   -0.001876   0.000110  -0.000152  -0.000283  -0.000490  -0.001081
    34  H    0.018780  -0.001066  -0.000290   0.001225  -0.051685  -0.019801
    35  C    0.042476   0.003464  -0.016493  -0.013023  -0.170512  -0.013369
    36  H    0.002119  -0.000086   0.000020   0.000285   0.005260  -0.002361
    37  H   -0.004596   0.001091  -0.001960  -0.003189  -0.022632   0.001328
    38  H   -0.012849   0.000013  -0.000151  -0.001579  -0.006542   0.001684
              25         26         27         28         29         30
     1  C    0.038808   0.010428   0.042175  -0.034790  -0.006333   0.002027
     2  H   -0.000858  -0.001147   0.001376   0.000033  -0.000497   0.000196
     3  C    0.014496  -0.003003   0.592544   0.092525  -0.036246   0.016872
     4  N    0.000964   0.000532  -0.006862  -0.007570   0.002796  -0.000690
     5  N    0.000316   0.001050  -0.082534  -0.006300   0.012033  -0.005181
     6  B   -0.280134  -0.001957  -1.467176  -0.041840   0.024413   0.012953
     7  C    0.000723   0.000247  -0.005188  -0.002463   0.000190   0.000009
     8  H    0.000048   0.000014   0.000043   0.000047  -0.000000   0.000013
     9  H   -0.000020  -0.000002  -0.000141  -0.000263   0.000043  -0.000003
    10  H    0.000026  -0.000014  -0.000049   0.000072  -0.000016   0.000002
    11  C   -0.001774  -0.001196   0.077754  -0.006729   0.003860  -0.001785
    12  H   -0.000288  -0.000097   0.006501   0.001018  -0.000335   0.000124
    13  C   -0.084735  -0.024501  -0.175988   0.027689  -0.059806   0.011027
    14  C   -0.033462  -0.006895  -0.591026  -0.113534   0.053254   0.008713
    15  C    0.050089  -0.031719   0.065448  -0.024337   0.031059  -0.003170
    16  H    0.003291   0.000905   0.000743  -0.000382  -0.000252   0.000127
    17  H   -0.001328  -0.000088  -0.009602  -0.001768   0.001687  -0.000274
    18  H   -0.002695   0.001389   0.003834  -0.000121   0.000750  -0.001595
    19  C    0.008048  -0.054147  -0.021671  -0.005285   0.011945  -0.001787
    20  H   -0.012509   0.001579   0.001253   0.000765  -0.001083  -0.000123
    21  H    0.008111   0.001340  -0.014601  -0.002806   0.001629   0.000257
    22  H    0.004603   0.007057  -0.003037  -0.000996   0.000234  -0.000067
    23  C    0.564467   0.448490   0.108762  -0.041108   0.043735   0.001735
    24  H   -0.029676  -0.045578  -0.011504  -0.000491  -0.010832   0.000275
    25  H    0.531356  -0.021259   0.048069  -0.002703   0.001160   0.000921
    26  H   -0.021259   0.540981  -0.001870  -0.000413   0.000366  -0.000199
    27  C    0.048069  -0.001870   6.948878   0.476919   0.273074   0.412174
    28  H   -0.002703  -0.000413   0.476919   0.495576  -0.034315  -0.020762
    29  H    0.001160   0.000366   0.273074  -0.034315   0.559292  -0.051407
    30  H    0.000921  -0.000199   0.412174  -0.020762  -0.051407   0.561049
    31  C    0.008674   0.017300  -0.229573   0.023339   0.017469  -0.060546
    32  H    0.005480   0.000312   0.054282  -0.005564   0.001922   0.002192
    33  H   -0.001244   0.000738  -0.044658   0.003680  -0.004924   0.001375
    34  H   -0.001574  -0.002272  -0.028315  -0.001686   0.007531   0.001021
    35  C   -0.014298  -0.006369   0.216327   0.016543   0.014335  -0.051464
    36  H    0.000689   0.000143  -0.041502  -0.002516   0.002243   0.000920
    37  H   -0.000845  -0.000861   0.088685   0.005808  -0.005615  -0.000025
    38  H   -0.001880   0.000312   0.002308   0.008911  -0.002221   0.006923
              31         32         33         34         35         36
     1  C   -0.046327   0.014728  -0.006549   0.000778   0.014122   0.008695
     2  H   -0.003984  -0.000597   0.000203  -0.000417   0.017190   0.000011
     3  C   -0.128236   0.003343   0.008612   0.006540   0.235173   0.003946
     4  N    0.006100   0.001289  -0.000228   0.000477  -0.030937   0.001232
     5  N    0.040057   0.001427   0.002117   0.003533  -0.040932  -0.003806
     6  B   -0.197076  -0.203138   0.075990  -0.026508  -0.400212   0.034555
     7  C   -0.000180   0.000109  -0.000039   0.000031  -0.008750  -0.000044
     8  H    0.000072   0.000012   0.000000   0.000005  -0.000509  -0.000030
     9  H   -0.000219  -0.000025  -0.000002   0.000004  -0.002158  -0.000129
    10  H    0.000238   0.000004   0.000000  -0.000002   0.000577   0.000050
    11  C   -0.025701  -0.000472  -0.000757   0.000927   0.229354   0.001788
    12  H   -0.002187  -0.000049  -0.000089  -0.000031   0.014408   0.000220
    13  C    0.034697  -0.104073   0.003334   0.092017  -0.128891   0.002410
    14  C    0.055660   0.045512  -0.033149   0.003290  -0.570473  -0.007892
    15  C    0.009896   0.083971  -0.007803  -0.048671  -0.082918   0.000439
    16  H    0.007553   0.002039   0.000399  -0.001623  -0.001488   0.000092
    17  H   -0.011389   0.002213  -0.001701   0.003115  -0.005711   0.000612
    18  H    0.045477  -0.003530   0.002296  -0.001986   0.014198  -0.002257
    19  C   -0.010700  -0.007367  -0.001876   0.018780   0.042476   0.002119
    20  H    0.000469  -0.001345   0.000110  -0.001066   0.003464  -0.000086
    21  H   -0.003800   0.000121  -0.000152  -0.000290  -0.016493   0.000020
    22  H    0.009078   0.002088  -0.000283   0.001225  -0.013023   0.000285
    23  C    0.029459   0.071955  -0.000490  -0.051685  -0.170512   0.005260
    24  H   -0.021095  -0.001642  -0.001081  -0.019801  -0.013369  -0.002361
    25  H    0.008674   0.005480  -0.001244  -0.001574  -0.014298   0.000689
    26  H    0.017300   0.000312   0.000738  -0.002272  -0.006369   0.000143
    27  C   -0.229573   0.054282  -0.044658  -0.028315   0.216327  -0.041502
    28  H    0.023339  -0.005564   0.003680  -0.001686   0.016543  -0.002516
    29  H    0.017469   0.001922  -0.004924   0.007531   0.014335   0.002243
    30  H   -0.060546   0.002192   0.001375   0.001021  -0.051464   0.000920
    31  C    6.208026   0.392448   0.408230   0.307244  -0.415800  -0.047573
    32  H    0.392448   0.568706  -0.030660  -0.033519  -0.026660  -0.002439
    33  H    0.408230  -0.030660   0.556168  -0.047621  -0.049514   0.001920
    34  H    0.307244  -0.033519  -0.047621   0.631442   0.050918   0.008716
    35  C   -0.415800  -0.026660  -0.049514   0.050918   6.610322   0.398505
    36  H   -0.047573  -0.002439   0.001920   0.008716   0.398505   0.561004
    37  H   -0.047607   0.006747  -0.001195  -0.003057   0.449857  -0.036178
    38  H    0.033824  -0.001655   0.007850  -0.008574   0.370620  -0.042903
              37         38
     1  C    0.006405   0.013242
     2  H    0.003035   0.001449
     3  C    0.050199   0.027306
     4  N   -0.008838  -0.005879
     5  N   -0.008036   0.005564
     6  B   -0.127009  -0.065499
     7  C   -0.000920  -0.001144
     8  H   -0.000078   0.000061
     9  H    0.000117  -0.000576
    10  H   -0.000081   0.000286
    11  C    0.017199  -0.012886
    12  H    0.001090  -0.001352
    13  C    0.000342   0.006286
    14  C   -0.050717  -0.010509
    15  C   -0.015449  -0.006184
    16  H   -0.000372  -0.000331
    17  H   -0.004623  -0.001606
    18  H    0.001883   0.001505
    19  C   -0.004596  -0.012849
    20  H    0.001091   0.000013
    21  H   -0.001960  -0.000151
    22  H   -0.003189  -0.001579
    23  C   -0.022632  -0.006542
    24  H    0.001328   0.001684
    25  H   -0.000845  -0.001880
    26  H   -0.000861   0.000312
    27  C    0.088685   0.002308
    28  H    0.005808   0.008911
    29  H   -0.005615  -0.002221
    30  H   -0.000025   0.006923
    31  C   -0.047607   0.033824
    32  H    0.006747  -0.001655
    33  H   -0.001195   0.007850
    34  H   -0.003057  -0.008574
    35  C    0.449857   0.370620
    36  H   -0.036178  -0.042903
    37  H    0.563246  -0.018916
    38  H   -0.018916   0.534539
 Mulliken charges:
               1
     1  C   -0.489840
     2  H    0.212788
     3  C   -0.778363
     4  N    0.159451
     5  N   -0.054892
     6  B    0.465757
     7  C   -0.374552
     8  H    0.170028
     9  H    0.205651
    10  H    0.200349
    11  C    0.134436
    12  H    0.244179
    13  C    0.022346
    14  C    0.229585
    15  C   -0.511417
    16  H    0.154769
    17  H    0.189250
    18  H    0.135663
    19  C   -0.446426
    20  H    0.151347
    21  H    0.185374
    22  H    0.118361
    23  C   -0.588256
    24  H    0.153208
    25  H    0.200941
    26  H    0.170402
    27  C   -0.685851
    28  H    0.205816
    29  H    0.148860
    30  H    0.158174
    31  C   -0.403320
    32  H    0.161834
    33  H    0.160990
    34  H    0.141103
    35  C   -0.647907
    36  H    0.153842
    37  H    0.165765
    38  H    0.180558
 Sum of Mulliken charges =  -0.00000
 Mulliken charges with hydrogens summed into heavy atoms:
               1
     1  C   -0.277053
     3  C   -0.778363
     4  N    0.159451
     5  N   -0.054892
     6  B    0.465757
     7  C    0.201474
    11  C    0.378616
    13  C    0.022346
    14  C    0.229585
    15  C   -0.031735
    19  C    0.008657
    23  C   -0.063705
    27  C   -0.173001
    31  C    0.060606
    35  C   -0.147743
 Electronic spatial extent (au):  <R**2>=           9923.0795
 Charge=             -0.0000 electrons
 Dipole moment (field-independent basis, Debye):
    X=             -1.0904    Y=              4.2658    Z=             -3.0015  Tot=              5.3287
 Quadrupole moment (field-independent basis, Debye-Ang):
   XX=           -101.5273   YY=            -93.0820   ZZ=            -95.1729
   XY=              8.7245   XZ=             -3.9065   YZ=             -2.7510
 Traceless Quadrupole moment (field-independent basis, Debye-Ang):
   XX=             -4.9333   YY=              3.5121   ZZ=              1.4212
   XY=              8.7245   XZ=             -3.9065   YZ=             -2.7510
 Octapole moment (field-independent basis, Debye-Ang**2):
  XXX=          -1101.0891  YYY=             90.8322  ZZZ=           -420.8794  XYY=           -354.1883
  XXY=             37.3594  XXZ=           -140.7593  XZZ=           -366.8772  YZZ=             31.9730
  YYZ=           -141.6833  XYZ=             -4.5775
 Hexadecapole moment (field-independent basis, Debye-Ang**3):
 XXXX=          -9959.6445 YYYY=          -1298.8177 ZZZZ=          -3144.8979 XXXY=            281.8522
 XXXZ=          -1892.7011 YYYX=            333.1766 YYYZ=            510.1712 ZZZX=          -1939.8272
 ZZZY=            525.0284 XXYY=          -1857.8560 XXZZ=          -2211.3229 YYZZ=           -718.1264
 XXYZ=            163.1927 YYXZ=           -644.9288 ZZXY=            113.3079
 N-N= 1.046056170700D+03 E-N=-3.496959136376D+03  KE= 6.025875273388D+02
 Breneman (CHELPG) radii used.
 Generate Potential Derived Charges using the Breneman model, NDens= 1.
 Grid spacing= 0.300 Box extension= 2.800
 NStep X,Y,Z=   42     42     45   Total possible points=       79380
 Number of Points to Fit=   19296

 **********************************************************************

            Electrostatic Properties Using The SCF Density.

 **********************************************************************

       Atomic Center    1 is at   3.086473  1.246386 -0.000361
       Atomic Center    2 is at   3.595083  2.174530  0.199425
       Atomic Center    3 is at   3.192079 -0.004142  0.573095
       Atomic Center    4 is at   2.117114  1.178090 -0.959672
       Atomic Center    5 is at   2.273064 -0.838764 -0.064012
       Atomic Center    6 is at   4.053602 -0.422956  1.818792
       Atomic Center    7 is at   1.653677  2.262892 -1.803436
       Atomic Center    8 is at   0.913719  1.873717 -2.502041
       Atomic Center    9 is at   1.191315  3.045761 -1.199927
       Atomic Center   10 is at   2.485023  2.684625 -2.370257
       Atomic Center   11 is at   1.675757 -0.108681 -0.964852
       Atomic Center   12 is at   0.917812 -0.446017 -1.658142
       Atomic Center   13 is at   5.583065  0.080381  1.936652
       Atomic Center   14 is at   3.345159 -1.435602  2.857000
       Atomic Center   15 is at   5.910202  0.780564  3.271417
       Atomic Center   16 is at   6.939526  1.158561  3.244262
       Atomic Center   17 is at   5.252805  1.639455  3.444539
       Atomic Center   18 is at   5.829616  0.118760  4.131357
       Atomic Center   19 is at   6.044358  1.034113  0.819018
       Atomic Center   20 is at   7.130006  1.174947  0.882243
       Atomic Center   21 is at   5.812527  0.651551 -0.177604
       Atomic Center   22 is at   5.592790  2.025373  0.917491
       Atomic Center   23 is at   6.449425 -1.196703  1.803889
       Atomic Center   24 is at   6.266934 -1.916707  2.603019
       Atomic Center   25 is at   6.272893 -1.703459  0.848979
       Atomic Center   26 is at   7.510852 -0.923250  1.839118
       Atomic Center   27 is at   3.362348 -2.832408  2.184970
       Atomic Center   28 is at   2.884935 -2.810480  1.204338
       Atomic Center   29 is at   4.381667 -3.213438  2.069660
       Atomic Center   30 is at   2.815685 -3.542820  2.818053
       Atomic Center   31 is at   3.969968 -1.583163  4.254877
       Atomic Center   32 is at   3.917834 -0.651172  4.824641
       Atomic Center   33 is at   3.412298 -2.339673  4.820423
       Atomic Center   34 is at   5.012087 -1.908317  4.229235
       Atomic Center   35 is at   1.872868 -1.024167  3.081290
       Atomic Center   36 is at   1.398756 -1.715016  3.789456
       Atomic Center   37 is at   1.801242 -0.017242  3.508149
       Atomic Center   38 is at   1.300545 -1.042652  2.153953
   19296 points will be used for fitting atomic charges
 Fitting point charges to electrostatic potential
 Charges from ESP fit, RMS=   0.00244 RRMS=   0.15420:
 ESP charges:
               1
     1  C   -0.330367
     2  H    0.188892
     3  C    0.148894
     4  N    0.198723
     5  N   -0.488974
     6  B    0.126375
     7  C   -0.310875
     8  H    0.122387
     9  H    0.128234
    10  H    0.135007
    11  C    0.076111
    12  H    0.117206
    13  C    0.342615
    14  C    0.429121
    15  C   -0.347291
    16  H    0.074733
    17  H    0.052404
    18  H    0.065348
    19  C   -0.307096
    20  H    0.067011
    21  H    0.034004
    22  H    0.052927
    23  C   -0.225367
    24  H    0.044845
    25  H    0.041849
    26  H    0.042861
    27  C    0.044605
    28  H   -0.076058
    29  H   -0.035812
    30  H   -0.024619
    31  C   -0.501810
    32  H    0.114414
    33  H    0.089899
    34  H    0.097441
    35  C   -0.406185
    36  H    0.090468
    37  H    0.046049
    38  H    0.082029
 Sum of ESP charges =  -0.00000
 ESP charges with hydrogens summed into heavy atoms:
               1
     1  C   -0.141474
     3  C    0.148894
     4  N    0.198723
     5  N   -0.488974
     6  B    0.126375
     7  C    0.074753
    11  C    0.193318
    13  C    0.342615
    14  C    0.429121
    15  C   -0.154805
    19  C   -0.153154
    23  C   -0.095811
    27  C   -0.091884
    31  C   -0.200056
    35  C   -0.187639
 Charge=  -0.00000 Dipole=    -1.0271     4.2242    -2.9708 Tot=     5.2654
 -----------------------------------------------------------------

              Electrostatic Properties (Atomic Units)

 -----------------------------------------------------------------
    Center     Electric         -------- Electric Field --------
               Potential          X             Y             Z
 -----------------------------------------------------------------
    1 Atom    -14.746632
    2 Atom     -1.072884
    3 Atom    -14.786678
    4 Atom    -18.323301
    5 Atom    -18.433463
    6 Atom    -11.477871
    7 Atom    -14.707500
    8 Atom     -1.068027
    9 Atom     -1.076211
   10 Atom     -1.075398
   11 Atom    -14.725519
   12 Atom     -1.074078
   13 Atom    -14.783744
   14 Atom    -14.794994
   15 Atom    -14.795970
   16 Atom     -1.136092
   17 Atom     -1.133172
   18 Atom     -1.138165
   19 Atom    -14.797574
   20 Atom     -1.137221
   21 Atom     -1.137868
   22 Atom     -1.131059
   23 Atom    -14.793218
   24 Atom     -1.134747
   25 Atom     -1.133755
   26 Atom     -1.132692
   27 Atom    -14.811434
   28 Atom     -1.159055
   29 Atom     -1.148006
   30 Atom     -1.148802
   31 Atom    -14.805620
   32 Atom     -1.142972
   33 Atom     -1.146515
   34 Atom     -1.142090
   35 Atom    -14.812150
   36 Atom     -1.150853
   37 Atom     -1.147304
   38 Atom     -1.157047
 -----------------------------------------------------------------
 Unable to Open any file for archive entry.
 1\1\GINC-IRENE4624\SP\RwB97XD\GenECP\C12H23B1N2\PENASFRA\10-Apr-2024\0
 \\# wb97xd/genecp scrf=(solvent=toluene,pcm) nosymm pop=(chelpg) scfcy
 c=300\\tbu_nmeimidazole_chelpg\\0,1\C,0,3.086473,1.246386,-0.000361\H,
 0,3.595083,2.17453,0.199425\C,0,3.192079,-0.004142,0.573095\N,0,2.1171
 14,1.17809,-0.959672\N,0,2.273064,-0.838764,-0.064012\B,0,4.053602,-0.
 422956,1.818792\C,0,1.653677,2.262892,-1.803436\H,0,0.913719,1.873717,
 -2.502041\H,0,1.191315,3.045761,-1.199927\H,0,2.485023,2.684625,-2.370
 257\C,0,1.675757,-0.108681,-0.964852\H,0,0.917812,-0.446017,-1.658142\
 C,0,5.583065,0.080381,1.936652\C,0,3.345159,-1.435602,2.857\C,0,5.9102
 02,0.780564,3.271417\H,0,6.939526,1.158561,3.244262\H,0,5.252805,1.639
 455,3.444539\H,0,5.829616,0.11876,4.131357\C,0,6.044358,1.034113,0.819
 018\H,0,7.130006,1.174947,0.882243\H,0,5.812527,0.651551,-0.177604\H,0
 ,5.59279,2.025373,0.917491\C,0,6.449425,-1.196703,1.803889\H,0,6.26693
 4,-1.916707,2.603019\H,0,6.272893,-1.703459,0.848979\H,0,7.510852,-0.9
 2325,1.839118\C,0,3.362348,-2.832408,2.18497\H,0,2.884935,-2.81048,1.2
 04338\H,0,4.381667,-3.213438,2.06966\H,0,2.815685,-3.54282,2.818053\C,
 0,3.969968,-1.583163,4.254877\H,0,3.917834,-0.651172,4.824641\H,0,3.41
 2298,-2.339673,4.820423\H,0,5.012087,-1.908317,4.229235\C,0,1.872868,-
 1.024167,3.08129\H,0,1.398756,-1.715016,3.789456\H,0,1.801242,-0.01724
 2,3.508149\H,0,1.300545,-1.042652,2.153953\\Version=AS64L-G16RevC.02\H
 F=-605.4679378\RMSD=4.280e-09\Dipole=-0.4289909,1.6782983,-1.1808783\Q
 uadrupole=-3.6677635,2.6111538,1.0566097,6.4864155,-2.9043577,-2.04527
 33\PG=C01 [X(C12H23B1N2)]\\@
 The archive entry for this job was punched.


 Experience is what you get when you don't get what you want.
 -- Dan Stanford
 Job cpu time:       0 days  1 hours 29 minutes 27.5 seconds.
 Elapsed time:       0 days  0 hours  0 minutes 54.5 seconds.
 File lengths (MBytes):  RWF=    218 Int=      0 D2E=      0 Chk=     16 Scr=      1
 Normal termination of Gaussian 16 at Wed Apr 10 15:55:50 2024.
