 Entering Gaussian System, Link 0=/ccc/products/gaussian-16-C.02/system/default/g16/g16
 Input=tbu_benzopiperidine_chelpg.gjf
 Output=tbu_benzopiperidine_chelpg.log
 Initial command:
 /ccc/products/gaussian-16-C.02/system/default/g16/l1.exe "/ccc/scratch/cont003/gen7343/penasfra/flp/b-n_flp/tbu_benzopiperidine/reac/Gau-2096749.inp" -scrdir="/ccc/scratch/cont003/gen7343/penasfra/flp/b-n_flp/tbu_benzopiperidine/reac/"
 Entering Link 1 = /ccc/products/gaussian-16-C.02/system/default/g16/l1.exe PID=   2096799.
  
 Copyright (c) 1988-2021, Gaussian, Inc.  All Rights Reserved.
  
 This is part of the Gaussian(R) 16 program.  It is based on
 the Gaussian(R) 09 system (copyright 2009, Gaussian, Inc.),
 the Gaussian(R) 03 system (copyright 2003, Gaussian, Inc.),
 the Gaussian(R) 98 system (copyright 1998, Gaussian, Inc.),
 the Gaussian(R) 94 system (copyright 1995, Gaussian, Inc.),
 the Gaussian 92(TM) system (copyright 1992, Gaussian, Inc.),
 the Gaussian 90(TM) system (copyright 1990, Gaussian, Inc.),
 the Gaussian 88(TM) system (copyright 1988, Gaussian, Inc.),
 the Gaussian 86(TM) system (copyright 1986, Carnegie Mellon
 University), and the Gaussian 82(TM) system (copyright 1983,
 Carnegie Mellon University). Gaussian is a federally registered
 trademark of Gaussian, Inc.
  
 This software contains proprietary and confidential information,
 including trade secrets, belonging to Gaussian, Inc.
  
 This software is provided under written license and may be
 used, copied, transmitted, or stored only in accord with that
 written license.
  
 The following legend is applicable only to US Government
 contracts under FAR:
  
                    RESTRICTED RIGHTS LEGEND
  
 Use, reproduction and disclosure by the US Government is
 subject to restrictions as set forth in subparagraphs (a)
 and (c) of the Commercial Computer Software - Restricted
 Rights clause in FAR 52.227-19.
  
 Gaussian, Inc.
 340 Quinnipiac St., Bldg. 40, Wallingford CT 06492
  
  
 ---------------------------------------------------------------
 Warning -- This program may not be used in any manner that
 competes with the business of Gaussian, Inc. or will provide
 assistance to any competitor of Gaussian, Inc.  The licensee
 of this program is prohibited from giving any competitor of
 Gaussian, Inc. access to this program.  By using this program,
 the user acknowledges that Gaussian, Inc. is engaged in the
 business of creating and licensing software in the field of
 computational chemistry and represents and warrants to the
 licensee that it is not a competitor of Gaussian, Inc. and that
 it will not use this program in any manner prohibited above.
 ---------------------------------------------------------------
  

 Cite this work as:
 Gaussian 16, Revision C.02,
 M. J. Frisch, G. W. Trucks, H. B. Schlegel, G. E. Scuseria, 
 M. A. Robb, J. R. Cheeseman, G. Scalmani, V. Barone, 
 G. A. Petersson, H. Nakatsuji, X. Li, M. Caricato, A. V. Marenich, 
 J. Bloino, B. G. Janesko, R. Gomperts, B. Mennucci, H. P. Hratchian, 
 J. V. Ortiz, A. F. Izmaylov, J. L. Sonnenberg, D. Williams-Young, 
 F. Ding, F. Lipparini, F. Egidi, J. Goings, B. Peng, A. Petrone, 
 T. Henderson, D. Ranasinghe, V. G. Zakrzewski, J. Gao, N. Rega, 
 G. Zheng, W. Liang, M. Hada, M. Ehara, K. Toyota, R. Fukuda, 
 J. Hasegawa, M. Ishida, T. Nakajima, Y. Honda, O. Kitao, H. Nakai, 
 T. Vreven, K. Throssell, J. A. Montgomery, Jr., J. E. Peralta, 
 F. Ogliaro, M. J. Bearpark, J. J. Heyd, E. N. Brothers, K. N. Kudin, 
 V. N. Staroverov, T. A. Keith, R. Kobayashi, J. Normand, 
 K. Raghavachari, A. P. Rendell, J. C. Burant, S. S. Iyengar, 
 J. Tomasi, M. Cossi, J. M. Millam, M. Klene, C. Adamo, R. Cammi, 
 J. W. Ochterski, R. L. Martin, K. Morokuma, O. Farkas, 
 J. B. Foresman, and D. J. Fox, Gaussian, Inc., Wallingford CT, 2019.
 
 ******************************************
 Gaussian 16:  AS64L-G16RevC.02  7-Dec-2021
                10-Apr-2024 
 ******************************************
 %nprocshared=128
 Will use up to  128 processors via shared memory.
 %mem=30GB
 %chk=tbu_benzopiperidine_chelpg.chk
 ----------------------------------------------------------------------
 # wb97xd/genecp scrf=(solvent=toluene,pcm) nosymm pop=(chelpg) scfcyc=
 300
 ----------------------------------------------------------------------
 1/38=1,172=1/1;
 2/12=2,15=1,17=6,18=5,40=1/2;
 3/5=7,11=2,16=1,17=8,25=1,30=1,70=2201,72=13,74=-58/1,2,3;
 4//1;
 5/5=2,7=300,38=5,53=13/2;
 6/7=2,8=2,9=2,10=2,15=8,20=3,28=1/1,2;
 99/5=1,9=1/99;
 --------------------------
 tbu_benzopiperidine_chelpg
 --------------------------
 Symbolic Z-matrix:
 Charge =  0 Multiplicity = 1
 C                    -0.58923   0.93966   0.4821 
 C                     0.79367   0.90138   0.35332 
 C                     1.54032   2.06692   0.14554 
 C                     0.85399   3.27932   0.04606 
 C                    -0.53596   3.31988   0.15796 
 C                    -1.25785   2.15461   0.38219 
 H                    -1.14424   0.02407   0.65547 
 H                     1.30101  -0.0572    0.42165 
 H                    -1.05895   4.26624   0.07049 
 H                    -2.33776   2.19448   0.47341 
 B                     3.11738   2.01315   0.01784 
 C                     1.55563   4.94236  -1.5691 
 C                     1.31934   5.55879   0.74822 
 C                     2.55291   6.07053  -1.8126 
 C                     2.33226   6.68803   0.60507 
 C                     2.33823   7.21862  -0.82777 
 H                     2.45674   6.41995  -2.84482 
 H                     3.56879   5.67871  -1.69264 
 H                     2.08916   7.48562   1.3132 
 H                     3.32744   6.30898   0.86453 
 H                     3.11039   7.98241  -0.95524 
 H                     1.3745    7.70058  -1.0363 
 N                     1.63078   4.47134  -0.18317 
 H                     1.3245    5.1555    1.76225 
 H                     0.30976   5.96802   0.56401 
 H                     0.5349    5.29665  -1.80499 
 H                     1.76223   4.10094  -2.2331 
 C                     3.72832   1.55113  -1.40381 
 C                     3.96565   2.20757   1.36738 
 C                     2.63276   1.19427  -2.42624 
 H                     2.03546   0.33932  -2.09764 
 H                     1.93953   2.02162  -2.59659 
 H                     3.08765   0.93334  -3.38929 
 C                     4.56772   2.70069  -2.00132 
 H                     4.93014   2.40901  -2.99453 
 H                     3.97577   3.61041  -2.12366 
 H                     5.4364    2.94666  -1.39014 
 C                     4.62671   0.30389  -1.26723 
 H                     5.00479   0.01755  -2.25607 
 H                     5.49064   0.46886  -0.62181 
 H                     4.06981  -0.55211  -0.87248 
 C                     5.42267   2.66958   1.20893 
 H                     5.9052    2.71402   2.19295 
 H                     6.02039   2.00241   0.5857 
 H                     5.47253   3.67266   0.77493 
 C                     3.29589   3.17083   2.36138 
 H                     2.25189   2.90775   2.54908 
 H                     3.82739   3.14677   3.32051 
 H                     3.32623   4.19591   1.98732 
 C                     3.9555    0.7993    2.02058 
 H                     4.47939   0.8496    2.9823 
 H                     2.93702   0.45421   2.22308 
 H                     4.4587    0.04556   1.41104 
 
 Symmetry turned off by external request.
 Stoichiometry    C19H32BN
 Framework group  C1[X(C19H32BN)]
 Deg. of freedom   153
 Full point group                 C1      NOp   1
                          Input orientation:                          
 ---------------------------------------------------------------------
 Center     Atomic      Atomic             Coordinates (Angstroms)
 Number     Number       Type             X           Y           Z
 ---------------------------------------------------------------------
      1          6           0       -0.589229    0.939657    0.482095
      2          6           0        0.793673    0.901384    0.353320
      3          6           0        1.540320    2.066919    0.145537
      4          6           0        0.853993    3.279318    0.046060
      5          6           0       -0.535963    3.319875    0.157964
      6          6           0       -1.257845    2.154614    0.382191
      7          1           0       -1.144235    0.024070    0.655465
      8          1           0        1.301006   -0.057195    0.421649
      9          1           0       -1.058952    4.266241    0.070485
     10          1           0       -2.337758    2.194479    0.473410
     11          5           0        3.117382    2.013148    0.017841
     12          6           0        1.555625    4.942363   -1.569097
     13          6           0        1.319335    5.558794    0.748219
     14          6           0        2.552907    6.070530   -1.812596
     15          6           0        2.332264    6.688032    0.605074
     16          6           0        2.338227    7.218620   -0.827774
     17          1           0        2.456740    6.419948   -2.844818
     18          1           0        3.568793    5.678707   -1.692644
     19          1           0        2.089159    7.485618    1.313195
     20          1           0        3.327445    6.308978    0.864530
     21          1           0        3.110391    7.982411   -0.955239
     22          1           0        1.374503    7.700578   -1.036298
     23          7           0        1.630775    4.471337   -0.183171
     24          1           0        1.324498    5.155502    1.762252
     25          1           0        0.309755    5.968016    0.564009
     26          1           0        0.534898    5.296649   -1.804991
     27          1           0        1.762233    4.100939   -2.233097
     28          6           0        3.728321    1.551127   -1.403808
     29          6           0        3.965654    2.207569    1.367376
     30          6           0        2.632758    1.194274   -2.426237
     31          1           0        2.035460    0.339316   -2.097639
     32          1           0        1.939525    2.021615   -2.596592
     33          1           0        3.087653    0.933339   -3.389287
     34          6           0        4.567717    2.700685   -2.001319
     35          1           0        4.930142    2.409012   -2.994527
     36          1           0        3.975765    3.610411   -2.123662
     37          1           0        5.436395    2.946655   -1.390136
     38          6           0        4.626711    0.303893   -1.267229
     39          1           0        5.004786    0.017545   -2.256066
     40          1           0        5.490643    0.468864   -0.621809
     41          1           0        4.069808   -0.552110   -0.872476
     42          6           0        5.422671    2.669583    1.208931
     43          1           0        5.905203    2.714021    2.192950
     44          1           0        6.020389    2.002409    0.585698
     45          1           0        5.472528    3.672657    0.774927
     46          6           0        3.295892    3.170831    2.361379
     47          1           0        2.251887    2.907754    2.549076
     48          1           0        3.827394    3.146770    3.320508
     49          1           0        3.326229    4.195906    1.987320
     50          6           0        3.955496    0.799300    2.020580
     51          1           0        4.479388    0.849602    2.982302
     52          1           0        2.937017    0.454214    2.223079
     53          1           0        4.458701    0.045564    1.411038
 ---------------------------------------------------------------------
 Rotational constants (GHZ):           0.3603196           0.2842611           0.2349903
 General basis read from cards:  (5D, 7F)
 ======================================================================================================
                                       Pseudopotential Parameters
 ======================================================================================================
  Center     Atomic      Valence      Angular      Power
  Number     Number     Electrons     Momentum     of R      Exponent        Coefficient   SO-Coeffient
 ======================================================================================================
    1          6
                                   No pseudopotential on this center.
    2          6
                                   No pseudopotential on this center.
    3          6
                                   No pseudopotential on this center.
    4          6
                                   No pseudopotential on this center.
    5          6
                                   No pseudopotential on this center.
    6          6
                                   No pseudopotential on this center.
    7          1
                                   No pseudopotential on this center.
    8          1
                                   No pseudopotential on this center.
    9          1
                                   No pseudopotential on this center.
   10          1
                                   No pseudopotential on this center.
   11          5
                                   No pseudopotential on this center.
   12          6
                                   No pseudopotential on this center.
   13          6
                                   No pseudopotential on this center.
   14          6
                                   No pseudopotential on this center.
   15          6
                                   No pseudopotential on this center.
   16          6
                                   No pseudopotential on this center.
   17          1
                                   No pseudopotential on this center.
   18          1
                                   No pseudopotential on this center.
   19          1
                                   No pseudopotential on this center.
   20          1
                                   No pseudopotential on this center.
   21          1
                                   No pseudopotential on this center.
   22          1
                                   No pseudopotential on this center.
   23          7
                                   No pseudopotential on this center.
   24          1
                                   No pseudopotential on this center.
   25          1
                                   No pseudopotential on this center.
   26          1
                                   No pseudopotential on this center.
   27          1
                                   No pseudopotential on this center.
   28          6
                                   No pseudopotential on this center.
   29          6
                                   No pseudopotential on this center.
   30          6
                                   No pseudopotential on this center.
   31          1
                                   No pseudopotential on this center.
   32          1
                                   No pseudopotential on this center.
   33          1
                                   No pseudopotential on this center.
   34          6
                                   No pseudopotential on this center.
   35          1
                                   No pseudopotential on this center.
   36          1
                                   No pseudopotential on this center.
   37          1
                                   No pseudopotential on this center.
   38          6
                                   No pseudopotential on this center.
   39          1
                                   No pseudopotential on this center.
   40          1
                                   No pseudopotential on this center.
   41          1
                                   No pseudopotential on this center.
   42          6
                                   No pseudopotential on this center.
   43          1
                                   No pseudopotential on this center.
   44          1
                                   No pseudopotential on this center.
   45          1
                                   No pseudopotential on this center.
   46          6
                                   No pseudopotential on this center.
   47          1
                                   No pseudopotential on this center.
   48          1
                                   No pseudopotential on this center.
   49          1
                                   No pseudopotential on this center.
   50          6
                                   No pseudopotential on this center.
   51          1
                                   No pseudopotential on this center.
   52          1
                                   No pseudopotential on this center.
   53          1
                                   No pseudopotential on this center.
 ======================================================================================================
   686 basis functions,  1044 primitive gaussians,   707 cartesian basis functions
    79 alpha electrons       79 beta electrons
       nuclear repulsion energy      1838.9222522587 Hartrees.
 NAtoms=   53 NActive=   53 NUniq=   53 SFac= 1.00D+00 NAtFMM=   60 NAOKFM=F Big=F
 Integral buffers will be    131072 words long.
 Raffenetti 2 integral format.
 Two-electron integral symmetry is turned off.
 Nuclear repulsion after empirical dispersion term =     1838.8621876796 Hartrees.
 ------------------------------------------------------------------------------
 Polarizable Continuum Model (PCM)
 =================================
 Model                : PCM.
 Atomic radii         : UFF (Universal Force Field).
 Polarization charges : Total charges.
 Charge compensation  : None.
 Solution method      : On-the-fly selection.
 Cavity type          : Scaled VdW (van der Waals Surface) (Alpha=1.100).
 Cavity algorithm     : GePol (No added spheres)
                        Default sphere list used, NSphG=   53.
                        Lebedev-Laikov grids with approx.  5.0 points / Ang**2.
                        Smoothing algorithm: York/Karplus (Gamma=1.0000).
                        Polarization charges: spherical gaussians, with
                                              point-specific exponents (IZeta= 3).
                        Self-potential: point-specific (ISelfS= 7).
                        Self-field    : sphere-specific E.n sum rule (ISelfD= 2).
 Solvent              : Toluene, Eps=   2.374100 Eps(inf)=   2.238315
 ------------------------------------------------------------------------------
 One-electron integrals computed using PRISM.
   1 Symmetry operations used in ECPInt.
 ECPInt:  NShTT=   41041 NPrTT=  124227 LenC2=   38513 LenP2D=   83878.
 LDataN:  DoStor=T MaxTD1= 4 Len=   56
 Number of processors reduced to  63 by ecpmxn.
 NBasis=   686 RedAO= T EigKep=  1.43D-06  NBF=   686
 NBsUse=   683 1.00D-06 EigRej=  6.11D-07 NBFU=   683
 ExpMin= 3.15D-02 ExpMax= 6.29D+03 ExpMxC= 9.49D+02 IAcc=3 IRadAn=         5 AccDes= 0.00D+00
 Harris functional with IExCor= 4639 and IRadAn=       5 diagonalized for initial guess.
 HarFok:  IExCor= 4639 AccDes= 0.00D+00 IRadAn=         5 IDoV= 1 UseB2=F ITyADJ=14
 ICtDFT=  3500011 ScaDFX=  1.000000  1.000000  1.000000  1.000000
 FoFCou: FMM=F IPFlag=           0 FMFlag=      100000 FMFlg1=           0
         NFxFlg=           0 DoJE=T BraDBF=F KetDBF=T FulRan=T
         wScrn=  0.000000 ICntrl=       500 IOpCl=  0 I1Cent=   200000004 NGrid=           0
         NMat0=    1 NMatS0=      1 NMatT0=    0 NMatD0=    1 NMtDS0=    0 NMtDT0=    0
 Symmetry not used in FoFCou.
 Requested convergence on RMS density matrix=1.00D-08 within 300 cycles.
 Requested convergence on MAX density matrix=1.00D-06.
 Requested convergence on             energy=1.00D-06.
 No special actions if energy rises.
 Inv3:  Mode=1 IEnd=    25860288.
 Iteration    1 A*A^-1 deviation from unit magnitude is 5.22D-15 for   2933.
 Iteration    1 A*A^-1 deviation from orthogonality  is 1.75D-15 for   2486    635.
 Iteration    1 A^-1*A deviation from unit magnitude is 5.22D-15 for   2933.
 Iteration    1 A^-1*A deviation from orthogonality  is 1.77D-15 for   2297   1138.
 Error on total polarization charges =  0.01188
 SCF Done:  E(RwB97XD) =  -822.882577786     A.U. after   16 cycles
            NFock= 16  Conv=0.40D-08     -V/T= 2.0049

 **********************************************************************

            Population analysis using the SCF Density.

 **********************************************************************

 Alpha  occ. eigenvalues --  -14.43007 -10.31365 -10.30566 -10.30330 -10.28564
 Alpha  occ. eigenvalues --  -10.28548 -10.28454 -10.28437 -10.27717 -10.27689
 Alpha  occ. eigenvalues --  -10.27645 -10.27352 -10.27227 -10.26966 -10.26798
 Alpha  occ. eigenvalues --  -10.26748 -10.26586 -10.26305 -10.25963 -10.25745
 Alpha  occ. eigenvalues --   -6.84672  -1.04111  -0.95258  -0.90782  -0.89877
 Alpha  occ. eigenvalues --   -0.89217  -0.85521  -0.84522  -0.83117  -0.78286
 Alpha  occ. eigenvalues --   -0.77634  -0.77307  -0.76758  -0.74171  -0.72202
 Alpha  occ. eigenvalues --   -0.70390  -0.68511  -0.66010  -0.64601  -0.63144
 Alpha  occ. eigenvalues --   -0.61727  -0.57724  -0.56847  -0.55518  -0.55051
 Alpha  occ. eigenvalues --   -0.54343  -0.53570  -0.52729  -0.52512  -0.51640
 Alpha  occ. eigenvalues --   -0.51381  -0.50893  -0.50534  -0.50055  -0.49360
 Alpha  occ. eigenvalues --   -0.48681  -0.47357  -0.47086  -0.46273  -0.45805
 Alpha  occ. eigenvalues --   -0.45446  -0.44605  -0.44234  -0.44020  -0.43761
 Alpha  occ. eigenvalues --   -0.43430  -0.42919  -0.41633  -0.41324  -0.40391
 Alpha  occ. eigenvalues --   -0.39973  -0.39906  -0.39290  -0.38984  -0.35825
 Alpha  occ. eigenvalues --   -0.35721  -0.32755  -0.31537  -0.30165
 Alpha virt. eigenvalues --    0.03803   0.04297   0.04549   0.04714   0.04881
 Alpha virt. eigenvalues --    0.05663   0.05892   0.05931   0.06224   0.06319
 Alpha virt. eigenvalues --    0.06763   0.07114   0.07631   0.07799   0.08160
 Alpha virt. eigenvalues --    0.08279   0.08669   0.08806   0.09505   0.09902
 Alpha virt. eigenvalues --    0.10044   0.10752   0.11195   0.11269   0.11568
 Alpha virt. eigenvalues --    0.11906   0.12150   0.12503   0.13166   0.13341
 Alpha virt. eigenvalues --    0.13521   0.13680   0.14357   0.14593   0.14915
 Alpha virt. eigenvalues --    0.15096   0.15524   0.15848   0.16048   0.16280
 Alpha virt. eigenvalues --    0.16528   0.16850   0.17019   0.17282   0.17452
 Alpha virt. eigenvalues --    0.17751   0.18117   0.18174   0.18369   0.18757
 Alpha virt. eigenvalues --    0.18940   0.19020   0.19365   0.19473   0.19569
 Alpha virt. eigenvalues --    0.19609   0.20056   0.20254   0.20468   0.20561
 Alpha virt. eigenvalues --    0.20688   0.21007   0.21208   0.21310   0.21471
 Alpha virt. eigenvalues --    0.21694   0.22094   0.22297   0.22579   0.22672
 Alpha virt. eigenvalues --    0.22945   0.23128   0.23372   0.23777   0.24025
 Alpha virt. eigenvalues --    0.24141   0.24653   0.24764   0.24945   0.25098
 Alpha virt. eigenvalues --    0.25264   0.25521   0.25833   0.26168   0.26519
 Alpha virt. eigenvalues --    0.26714   0.26766   0.26962   0.27613   0.27674
 Alpha virt. eigenvalues --    0.27897   0.27998   0.28321   0.28565   0.28690
 Alpha virt. eigenvalues --    0.28897   0.29148   0.29388   0.29853   0.30082
 Alpha virt. eigenvalues --    0.30351   0.30616   0.30904   0.31041   0.31343
 Alpha virt. eigenvalues --    0.31519   0.31536   0.32158   0.32349   0.32618
 Alpha virt. eigenvalues --    0.32876   0.33060   0.33264   0.33435   0.33812
 Alpha virt. eigenvalues --    0.34076   0.34466   0.34904   0.35078   0.35360
 Alpha virt. eigenvalues --    0.35676   0.35911   0.36388   0.36795   0.37097
 Alpha virt. eigenvalues --    0.37374   0.37477   0.37782   0.37919   0.38186
 Alpha virt. eigenvalues --    0.38502   0.38670   0.39254   0.39401   0.39524
 Alpha virt. eigenvalues --    0.39881   0.40130   0.40557   0.40716   0.41024
 Alpha virt. eigenvalues --    0.41080   0.41336   0.41829   0.42670   0.42745
 Alpha virt. eigenvalues --    0.43292   0.43369   0.43645   0.44004   0.44308
 Alpha virt. eigenvalues --    0.44569   0.45676   0.46027   0.46443   0.46927
 Alpha virt. eigenvalues --    0.47255   0.48087   0.48343   0.49188   0.49434
 Alpha virt. eigenvalues --    0.50033   0.50340   0.50955   0.51521   0.52779
 Alpha virt. eigenvalues --    0.53459   0.54659   0.55962   0.56835   0.57395
 Alpha virt. eigenvalues --    0.57515   0.57937   0.58584   0.59404   0.60507
 Alpha virt. eigenvalues --    0.61035   0.61055   0.63031   0.63071   0.63672
 Alpha virt. eigenvalues --    0.64226   0.64932   0.65601   0.65801   0.66521
 Alpha virt. eigenvalues --    0.66672   0.67539   0.67762   0.68130   0.68545
 Alpha virt. eigenvalues --    0.69119   0.69386   0.69821   0.70277   0.70472
 Alpha virt. eigenvalues --    0.70692   0.71380   0.71996   0.72429   0.72618
 Alpha virt. eigenvalues --    0.73234   0.74076   0.74903   0.75530   0.75710
 Alpha virt. eigenvalues --    0.76284   0.76608   0.76695   0.77026   0.77136
 Alpha virt. eigenvalues --    0.77680   0.77992   0.78526   0.78985   0.79408
 Alpha virt. eigenvalues --    0.79851   0.80003   0.80434   0.80625   0.81900
 Alpha virt. eigenvalues --    0.82057   0.82262   0.82492   0.83220   0.83467
 Alpha virt. eigenvalues --    0.84234   0.84361   0.85202   0.85282   0.85978
 Alpha virt. eigenvalues --    0.86646   0.86949   0.87370   0.87590   0.87780
 Alpha virt. eigenvalues --    0.88230   0.88608   0.88682   0.89092   0.89822
 Alpha virt. eigenvalues --    0.90350   0.90606   0.91233   0.91387   0.91958
 Alpha virt. eigenvalues --    0.92257   0.92942   0.93408   0.93941   0.94643
 Alpha virt. eigenvalues --    0.94717   0.95257   0.96190   0.96605   0.97359
 Alpha virt. eigenvalues --    0.97579   0.97935   0.99615   1.00446   1.00972
 Alpha virt. eigenvalues --    1.01817   1.02417   1.03443   1.04750   1.05275
 Alpha virt. eigenvalues --    1.06242   1.07804   1.08126   1.10018   1.10465
 Alpha virt. eigenvalues --    1.11008   1.11978   1.12966   1.13361   1.15127
 Alpha virt. eigenvalues --    1.15737   1.16260   1.17855   1.17886   1.18868
 Alpha virt. eigenvalues --    1.19894   1.20719   1.21306   1.22115   1.22735
 Alpha virt. eigenvalues --    1.23754   1.24052   1.25687   1.26627   1.26950
 Alpha virt. eigenvalues --    1.28306   1.30926   1.32112   1.32493   1.34054
 Alpha virt. eigenvalues --    1.34875   1.37147   1.38571   1.39890   1.40375
 Alpha virt. eigenvalues --    1.40996   1.42242   1.44162   1.45265   1.46659
 Alpha virt. eigenvalues --    1.47882   1.48144   1.49705   1.51043   1.54174
 Alpha virt. eigenvalues --    1.54692   1.55573   1.56844   1.56955   1.57771
 Alpha virt. eigenvalues --    1.58528   1.59245   1.59999   1.60561   1.61562
 Alpha virt. eigenvalues --    1.62713   1.63444   1.63902   1.64311   1.65194
 Alpha virt. eigenvalues --    1.65635   1.66013   1.66536   1.66954   1.67512
 Alpha virt. eigenvalues --    1.68238   1.68335   1.69144   1.69273   1.69661
 Alpha virt. eigenvalues --    1.70259   1.70574   1.71062   1.71642   1.72320
 Alpha virt. eigenvalues --    1.72976   1.73379   1.73696   1.74645   1.74788
 Alpha virt. eigenvalues --    1.75590   1.75901   1.76243   1.76576   1.77527
 Alpha virt. eigenvalues --    1.78015   1.78475   1.79144   1.79582   1.79895
 Alpha virt. eigenvalues --    1.80408   1.81204   1.81462   1.82699   1.83205
 Alpha virt. eigenvalues --    1.83793   1.84690   1.85097   1.85398   1.85982
 Alpha virt. eigenvalues --    1.86252   1.86942   1.87487   1.88039   1.88476
 Alpha virt. eigenvalues --    1.89693   1.89758   1.90119   1.91041   1.91362
 Alpha virt. eigenvalues --    1.91886   1.92741   1.93014   1.93691   1.94495
 Alpha virt. eigenvalues --    1.94821   1.95014   1.95914   1.97418   1.98702
 Alpha virt. eigenvalues --    1.99461   2.00129   2.00816   2.00886   2.01928
 Alpha virt. eigenvalues --    2.02683   2.03928   2.05645   2.06830   2.07459
 Alpha virt. eigenvalues --    2.08726   2.09907   2.10352   2.11471   2.12529
 Alpha virt. eigenvalues --    2.13291   2.13958   2.14305   2.14677   2.15280
 Alpha virt. eigenvalues --    2.17048   2.17476   2.18632   2.19175   2.20705
 Alpha virt. eigenvalues --    2.20900   2.22901   2.23995   2.24736   2.25559
 Alpha virt. eigenvalues --    2.26679   2.27634   2.27737   2.28423   2.30744
 Alpha virt. eigenvalues --    2.31543   2.32303   2.33523   2.35554   2.35900
 Alpha virt. eigenvalues --    2.36826   2.37255   2.37503   2.41397   2.41630
 Alpha virt. eigenvalues --    2.42468   2.42515   2.42979   2.44423   2.44820
 Alpha virt. eigenvalues --    2.45829   2.46505   2.48346   2.48831   2.51247
 Alpha virt. eigenvalues --    2.52024   2.52966   2.55015   2.55741   2.55936
 Alpha virt. eigenvalues --    2.56629   2.57583   2.59184   2.59785   2.60246
 Alpha virt. eigenvalues --    2.60701   2.62241   2.62524   2.63867   2.63965
 Alpha virt. eigenvalues --    2.64796   2.65474   2.65899   2.66204   2.66622
 Alpha virt. eigenvalues --    2.66996   2.67749   2.68248   2.68348   2.69350
 Alpha virt. eigenvalues --    2.69693   2.70781   2.71970   2.72097   2.72390
 Alpha virt. eigenvalues --    2.73549   2.74323   2.75894   2.76621   2.77732
 Alpha virt. eigenvalues --    2.78448   2.79650   2.80490   2.80876   2.82226
 Alpha virt. eigenvalues --    2.83343   2.83760   2.84593   2.85980   2.86062
 Alpha virt. eigenvalues --    2.87337   2.87448   2.88094   2.88925   2.89484
 Alpha virt. eigenvalues --    2.89949   2.90679   2.91557   2.92006   2.92927
 Alpha virt. eigenvalues --    2.93442   2.93592   2.94140   2.95467   2.96574
 Alpha virt. eigenvalues --    2.98361   2.98458   2.99417   2.99931   3.00880
 Alpha virt. eigenvalues --    3.01242   3.01473   3.02898   3.03541   3.05112
 Alpha virt. eigenvalues --    3.06163   3.06545   3.07929   3.09793   3.10763
 Alpha virt. eigenvalues --    3.15057   3.15402   3.16707   3.17034   3.17769
 Alpha virt. eigenvalues --    3.19988   3.20606   3.23083   3.24461   3.25072
 Alpha virt. eigenvalues --    3.27019   3.27589   3.28566   3.31299   3.34501
 Alpha virt. eigenvalues --    3.37395   3.38925   3.41949   3.44382   3.45048
 Alpha virt. eigenvalues --    3.48527   3.53476   3.54039   3.55248   3.60148
 Alpha virt. eigenvalues --    3.62669   3.65557   3.69815   3.70904   3.74363
 Alpha virt. eigenvalues --    3.76265   3.85446   3.88637   3.88927   3.89277
 Alpha virt. eigenvalues --    3.89481   3.90099   3.90714   3.92326   3.92556
 Alpha virt. eigenvalues --    3.92777   3.93818   3.94379   3.95053   3.95645
 Alpha virt. eigenvalues --    3.96746   3.97443   3.97617   4.00217   4.05497
 Alpha virt. eigenvalues --    4.06848   4.10911   4.16549   4.17147   4.24388
 Alpha virt. eigenvalues --    4.25006   4.27586   4.31883   4.37622   4.38914
 Alpha virt. eigenvalues --    4.39815   4.40795   4.43011   4.46170   4.55417
 Alpha virt. eigenvalues --    4.97796   4.98433   5.11364  14.88486  23.80151
 Alpha virt. eigenvalues --   23.96530  24.00325  24.01589  24.08744  24.08951
 Alpha virt. eigenvalues --   24.10987  24.11605  24.12874  24.13275  24.13752
 Alpha virt. eigenvalues --   24.14353  24.15644  24.16921  24.18718  24.19173
 Alpha virt. eigenvalues --   24.24608  24.26371  24.34429  35.78271
          Condensed to atoms (all electrons):
 Mulliken charges:
               1
     1  C   -0.598212
     2  C   -0.260130
     3  C    0.551455
     4  C   -0.410231
     5  C    0.104226
     6  C   -0.564589
     7  H    0.223358
     8  H    0.233449
     9  H    0.194476
    10  H    0.228677
    11  B   -0.956019
    12  C    0.010337
    13  C    0.059781
    14  C   -0.157046
    15  C   -0.331278
    16  C   -0.671022
    17  H    0.219735
    18  H    0.124120
    19  H    0.216900
    20  H    0.125873
    21  H    0.217506
    22  H    0.143629
    23  N    0.511358
    24  H    0.182800
    25  H    0.152678
    26  H    0.211377
    27  H    0.109703
    28  C   -0.363190
    29  C   -0.081667
    30  C   -0.251444
    31  H    0.201431
    32  H    0.206817
    33  H    0.184176
    34  C   -0.346983
    35  H    0.179598
    36  H    0.064716
    37  H    0.169612
    38  C   -0.434729
    39  H    0.173070
    40  H    0.172960
    41  H    0.194508
    42  C   -0.520221
    43  H    0.168985
    44  H    0.149710
    45  H    0.175671
    46  C   -0.442548
    47  H    0.225384
    48  H    0.183957
    49  H    0.103418
    50  C   -0.536803
    51  H    0.178576
    52  H    0.206929
    53  H    0.165155
 Sum of Mulliken charges =  -0.00000
 Mulliken charges with hydrogens summed into heavy atoms:
               1
     1  C   -0.374854
     2  C   -0.026681
     3  C    0.551455
     4  C   -0.410231
     5  C    0.298702
     6  C   -0.335912
    11  B   -0.956019
    12  C    0.331416
    13  C    0.395260
    14  C    0.186809
    15  C    0.011495
    16  C   -0.309887
    23  N    0.511358
    28  C   -0.363190
    29  C   -0.081667
    30  C    0.340981
    34  C    0.066943
    38  C    0.105809
    42  C   -0.025854
    46  C    0.070211
    50  C    0.013857
 Electronic spatial extent (au):  <R**2>=          14473.7358
 Charge=             -0.0000 electrons
 Dipole moment (field-independent basis, Debye):
    X=             -0.3427    Y=              1.0121    Z=             -0.2368  Tot=              1.0945
 Quadrupole moment (field-independent basis, Debye-Ang):
   XX=           -133.2180   YY=           -120.2942   ZZ=           -136.6507
   XY=             -0.1575   XZ=             -1.2902   YZ=             -2.6448
 Traceless Quadrupole moment (field-independent basis, Debye-Ang):
   XX=             -3.1637   YY=              9.7601   ZZ=             -6.5964
   XY=             -0.1575   XZ=             -1.2902   YZ=             -2.6448
 Octapole moment (field-independent basis, Debye-Ang**2):
  XXX=           -976.3003  YYY=          -1128.8611  ZZZ=             30.6310  XYY=           -310.7113
  XXY=           -409.1181  XXZ=             11.2407  XZZ=           -318.6502  YZZ=           -410.2618
  YYZ=              0.5417  XYZ=             -5.5685
 Hexadecapole moment (field-independent basis, Debye-Ang**3):
 XXXX=          -7567.5684 YYYY=         -10503.9985 ZZZZ=          -1778.3511 XXXY=          -2769.8932
 XXXZ=            114.4526 YYYX=          -2603.7770 YYYZ=            156.0592 ZZZX=            118.3447
 ZZZY=            185.9940 XXYY=          -3090.3216 XXZZ=          -1547.0318 YYZZ=          -2140.8178
 XXYZ=             57.2011 YYXZ=             10.9608 ZZXY=           -902.5790
 N-N= 1.838862187680D+03 E-N=-5.584990708644D+03  KE= 8.188750441172D+02
 Breneman (CHELPG) radii used.
 Generate Potential Derived Charges using the Breneman model, NDens= 1.
 Grid spacing= 0.300 Box extension= 2.800
 NStep X,Y,Z=   48     49     42   Total possible points=       98784
 Number of Points to Fit=   22824

 **********************************************************************

            Electrostatic Properties Using The SCF Density.

 **********************************************************************

       Atomic Center    1 is at  -0.589229  0.939657  0.482095
       Atomic Center    2 is at   0.793673  0.901384  0.353320
       Atomic Center    3 is at   1.540320  2.066919  0.145537
       Atomic Center    4 is at   0.853993  3.279318  0.046060
       Atomic Center    5 is at  -0.535963  3.319875  0.157964
       Atomic Center    6 is at  -1.257845  2.154614  0.382191
       Atomic Center    7 is at  -1.144235  0.024070  0.655465
       Atomic Center    8 is at   1.301006 -0.057195  0.421649
       Atomic Center    9 is at  -1.058952  4.266241  0.070485
       Atomic Center   10 is at  -2.337758  2.194479  0.473410
       Atomic Center   11 is at   3.117382  2.013148  0.017841
       Atomic Center   12 is at   1.555625  4.942363 -1.569097
       Atomic Center   13 is at   1.319335  5.558794  0.748219
       Atomic Center   14 is at   2.552907  6.070530 -1.812596
       Atomic Center   15 is at   2.332264  6.688032  0.605074
       Atomic Center   16 is at   2.338227  7.218620 -0.827774
       Atomic Center   17 is at   2.456740  6.419948 -2.844818
       Atomic Center   18 is at   3.568793  5.678707 -1.692644
       Atomic Center   19 is at   2.089159  7.485618  1.313195
       Atomic Center   20 is at   3.327445  6.308978  0.864530
       Atomic Center   21 is at   3.110391  7.982411 -0.955239
       Atomic Center   22 is at   1.374503  7.700578 -1.036298
       Atomic Center   23 is at   1.630775  4.471337 -0.183171
       Atomic Center   24 is at   1.324498  5.155502  1.762252
       Atomic Center   25 is at   0.309755  5.968016  0.564009
       Atomic Center   26 is at   0.534898  5.296649 -1.804991
       Atomic Center   27 is at   1.762233  4.100939 -2.233097
       Atomic Center   28 is at   3.728321  1.551127 -1.403808
       Atomic Center   29 is at   3.965654  2.207569  1.367376
       Atomic Center   30 is at   2.632758  1.194274 -2.426237
       Atomic Center   31 is at   2.035460  0.339316 -2.097639
       Atomic Center   32 is at   1.939525  2.021615 -2.596592
       Atomic Center   33 is at   3.087653  0.933339 -3.389287
       Atomic Center   34 is at   4.567717  2.700685 -2.001319
       Atomic Center   35 is at   4.930142  2.409012 -2.994527
       Atomic Center   36 is at   3.975765  3.610411 -2.123662
       Atomic Center   37 is at   5.436395  2.946655 -1.390136
       Atomic Center   38 is at   4.626711  0.303893 -1.267229
       Atomic Center   39 is at   5.004786  0.017545 -2.256066
       Atomic Center   40 is at   5.490643  0.468864 -0.621809
       Atomic Center   41 is at   4.069808 -0.552110 -0.872476
       Atomic Center   42 is at   5.422671  2.669583  1.208931
       Atomic Center   43 is at   5.905203  2.714021  2.192950
       Atomic Center   44 is at   6.020389  2.002409  0.585698
       Atomic Center   45 is at   5.472528  3.672657  0.774927
       Atomic Center   46 is at   3.295892  3.170831  2.361379
       Atomic Center   47 is at   2.251887  2.907754  2.549076
       Atomic Center   48 is at   3.827394  3.146770  3.320508
       Atomic Center   49 is at   3.326229  4.195906  1.987320
       Atomic Center   50 is at   3.955496  0.799300  2.020580
       Atomic Center   51 is at   4.479388  0.849602  2.982302
       Atomic Center   52 is at   2.937017  0.454214  2.223079
       Atomic Center   53 is at   4.458701  0.045564  1.411038
   22824 points will be used for fitting atomic charges
 Fitting point charges to electrostatic potential
 Charges from ESP fit, RMS=   0.00262 RRMS=   0.36840:
 ESP charges:
               1
     1  C   -0.191015
     2  C   -0.072166
     3  C   -0.094823
     4  C    0.421457
     5  C   -0.329140
     6  C   -0.058074
     7  H    0.113239
     8  H    0.102942
     9  H    0.162055
    10  H    0.099301
    11  B    0.179678
    12  C    0.043713
    13  C    0.045941
    14  C    0.064614
    15  C    0.009745
    16  C   -0.032038
    17  H   -0.005991
    18  H    0.004287
    19  H    0.006742
    20  H    0.027653
    21  H    0.005990
    22  H    0.018699
    23  N   -0.521994
    24  H    0.035001
    25  H    0.032994
    26  H    0.023183
    27  H    0.036821
    28  C    0.447340
    29  C    0.230879
    30  C   -0.211464
    31  H   -0.009783
    32  H   -0.013783
    33  H    0.055941
    34  C   -0.263964
    35  H    0.041565
    36  H    0.038282
    37  H    0.043156
    38  C   -0.377177
    39  H    0.062348
    40  H    0.077060
    41  H    0.079999
    42  C   -0.542026
    43  H    0.117099
    44  H    0.122161
    45  H    0.131355
    46  C   -0.086415
    47  H   -0.022982
    48  H    0.020769
    49  H    0.007743
    50  C   -0.114010
    51  H    0.040361
    52  H   -0.020682
    53  H    0.017411
 Sum of ESP charges =   0.00000
 ESP charges with hydrogens summed into heavy atoms:
               1
     1  C   -0.077776
     2  C    0.030776
     3  C   -0.094823
     4  C    0.421457
     5  C   -0.167085
     6  C    0.041227
    11  B    0.179678
    12  C    0.103717
    13  C    0.113936
    14  C    0.062910
    15  C    0.044140
    16  C   -0.007349
    23  N   -0.521994
    28  C    0.447340
    29  C    0.230879
    30  C   -0.179088
    34  C   -0.140962
    38  C   -0.157771
    42  C   -0.171410
    46  C   -0.080884
    50  C   -0.076920
 Charge=   0.00000 Dipole=    -0.3328     0.9676    -0.2006 Tot=     1.0427
 -----------------------------------------------------------------

              Electrostatic Properties (Atomic Units)

 -----------------------------------------------------------------
    Center     Electric         -------- Electric Field --------
               Potential          X             Y             Z
 -----------------------------------------------------------------
    1 Atom    -14.780600
    2 Atom    -14.778881
    3 Atom    -14.798382
    4 Atom    -14.749052
    5 Atom    -14.779929
    6 Atom    -14.779613
    7 Atom     -1.110470
    8 Atom     -1.110957
    9 Atom     -1.104204
   10 Atom     -1.109714
   11 Atom    -11.468144
   12 Atom    -14.749377
   13 Atom    -14.751512
   14 Atom    -14.776836
   15 Atom    -14.777275
   16 Atom    -14.775683
   17 Atom     -1.123322
   18 Atom     -1.128581
   19 Atom     -1.124023
   20 Atom     -1.129082
   21 Atom     -1.126997
   22 Atom     -1.126903
   23 Atom    -18.395784
   24 Atom     -1.124667
   25 Atom     -1.125856
   26 Atom     -1.126410
   27 Atom     -1.121824
   28 Atom    -14.780521
   29 Atom    -14.782373
   30 Atom    -14.799304
   31 Atom     -1.138382
   32 Atom     -1.137556
   33 Atom     -1.138103
   34 Atom    -14.791473
   35 Atom     -1.131167
   36 Atom     -1.130416
   37 Atom     -1.132196
   38 Atom    -14.788911
   39 Atom     -1.130409
   40 Atom     -1.128838
   41 Atom     -1.127725
   42 Atom    -14.794601
   43 Atom     -1.135381
   44 Atom     -1.132272
   45 Atom     -1.133626
   46 Atom    -14.801509
   47 Atom     -1.140827
   48 Atom     -1.139866
   49 Atom     -1.140084
   50 Atom    -14.787693
   51 Atom     -1.127507
   52 Atom     -1.128452
   53 Atom     -1.127921
 -----------------------------------------------------------------
 Unable to Open any file for archive entry.
 1\1\GINC-IRENE5276\SP\RwB97XD\GenECP\C19H32B1N1\PENASFRA\10-Apr-2024\0
 \\# wb97xd/genecp scrf=(solvent=toluene,pcm) nosymm pop=(chelpg) scfcy
 c=300\\tbu_benzopiperidine_chelpg\\0,1\C,0,-0.589229,0.939657,0.482095
 \C,0,0.793673,0.901384,0.35332\C,0,1.54032,2.066919,0.145537\C,0,0.853
 993,3.279318,0.04606\C,0,-0.535963,3.319875,0.157964\C,0,-1.257845,2.1
 54614,0.382191\H,0,-1.144235,0.02407,0.655465\H,0,1.301006,-0.057195,0
 .421649\H,0,-1.058952,4.266241,0.070485\H,0,-2.337758,2.194479,0.47341
 \B,0,3.117382,2.013148,0.017841\C,0,1.555625,4.942363,-1.569097\C,0,1.
 319335,5.558794,0.748219\C,0,2.552907,6.07053,-1.812596\C,0,2.332264,6
 .688032,0.605074\C,0,2.338227,7.21862,-0.827774\H,0,2.45674,6.419948,-
 2.844818\H,0,3.568793,5.678707,-1.692644\H,0,2.089159,7.485618,1.31319
 5\H,0,3.327445,6.308978,0.86453\H,0,3.110391,7.982411,-0.955239\H,0,1.
 374503,7.700578,-1.036298\N,0,1.630775,4.471337,-0.183171\H,0,1.324498
 ,5.155502,1.762252\H,0,0.309755,5.968016,0.564009\H,0,0.534898,5.29664
 9,-1.804991\H,0,1.762233,4.100939,-2.233097\C,0,3.728321,1.551127,-1.4
 03808\C,0,3.965654,2.207569,1.367376\C,0,2.632758,1.194274,-2.426237\H
 ,0,2.03546,0.339316,-2.097639\H,0,1.939525,2.021615,-2.596592\H,0,3.08
 7653,0.933339,-3.389287\C,0,4.567717,2.700685,-2.001319\H,0,4.930142,2
 .409012,-2.994527\H,0,3.975765,3.610411,-2.123662\H,0,5.436395,2.94665
 5,-1.390136\C,0,4.626711,0.303893,-1.267229\H,0,5.004786,0.017545,-2.2
 56066\H,0,5.490643,0.468864,-0.621809\H,0,4.069808,-0.55211,-0.872476\
 C,0,5.422671,2.669583,1.208931\H,0,5.905203,2.714021,2.19295\H,0,6.020
 389,2.002409,0.585698\H,0,5.472528,3.672657,0.774927\C,0,3.295892,3.17
 0831,2.361379\H,0,2.251887,2.907754,2.549076\H,0,3.827394,3.14677,3.32
 0508\H,0,3.326229,4.195906,1.98732\C,0,3.955496,0.7993,2.02058\H,0,4.4
 79388,0.849602,2.982302\H,0,2.937017,0.454214,2.223079\H,0,4.458701,0.
 045564,1.411038\\Version=AS64L-G16RevC.02\HF=-822.8825778\RMSD=3.961e-
 09\Dipole=-0.1348399,0.3981826,-0.0931725\Quadrupole=-2.3521015,7.2563
 624,-4.904261,-0.1171268,-0.9592508,-1.9663079\PG=C01 [X(C19H32B1N1)]\
 \@
 The archive entry for this job was punched.


 REFRAIN FROM ILLUSIONS, INSIST ON WORK AND NOT WORDS,
 PATIENTLY SEEK DIVINE AND SCIENTIFIC TRUTH.
 LAST WORDS OF MARIA MENDELEEVA TO HER SON DMITRI, C. 1850
 Job cpu time:       0 days  4 hours 19 minutes  8.6 seconds.
 Elapsed time:       0 days  0 hours  2 minutes 28.8 seconds.
 File lengths (MBytes):  RWF=    392 Int=      0 D2E=      0 Chk=     29 Scr=      1
 Normal termination of Gaussian 16 at Wed Apr 10 16:07:43 2024.
