 Entering Gaussian System, Link 0=/ccc/products/gaussian-16-C.02/system/default/g16/g16
 Input=tbu_naphtoxanthene_chelpg.gjf
 Output=tbu_naphtoxanthene_chelpg.log
 Initial command:
 /ccc/products/gaussian-16-C.02/system/default/g16/l1.exe "/ccc/scratch/cont003/gen7343/penasfra/flp/b-n_flp/tbu_naphtoxanthene/reac/Gau-206965.inp" -scrdir="/ccc/scratch/cont003/gen7343/penasfra/flp/b-n_flp/tbu_naphtoxanthene/reac/"
 Entering Link 1 = /ccc/products/gaussian-16-C.02/system/default/g16/l1.exe PID=    207014.
  
 Copyright (c) 1988-2021, Gaussian, Inc.  All Rights Reserved.
  
 This is part of the Gaussian(R) 16 program.  It is based on
 the Gaussian(R) 09 system (copyright 2009, Gaussian, Inc.),
 the Gaussian(R) 03 system (copyright 2003, Gaussian, Inc.),
 the Gaussian(R) 98 system (copyright 1998, Gaussian, Inc.),
 the Gaussian(R) 94 system (copyright 1995, Gaussian, Inc.),
 the Gaussian 92(TM) system (copyright 1992, Gaussian, Inc.),
 the Gaussian 90(TM) system (copyright 1990, Gaussian, Inc.),
 the Gaussian 88(TM) system (copyright 1988, Gaussian, Inc.),
 the Gaussian 86(TM) system (copyright 1986, Carnegie Mellon
 University), and the Gaussian 82(TM) system (copyright 1983,
 Carnegie Mellon University). Gaussian is a federally registered
 trademark of Gaussian, Inc.
  
 This software contains proprietary and confidential information,
 including trade secrets, belonging to Gaussian, Inc.
  
 This software is provided under written license and may be
 used, copied, transmitted, or stored only in accord with that
 written license.
  
 The following legend is applicable only to US Government
 contracts under FAR:
  
                    RESTRICTED RIGHTS LEGEND
  
 Use, reproduction and disclosure by the US Government is
 subject to restrictions as set forth in subparagraphs (a)
 and (c) of the Commercial Computer Software - Restricted
 Rights clause in FAR 52.227-19.
  
 Gaussian, Inc.
 340 Quinnipiac St., Bldg. 40, Wallingford CT 06492
  
  
 ---------------------------------------------------------------
 Warning -- This program may not be used in any manner that
 competes with the business of Gaussian, Inc. or will provide
 assistance to any competitor of Gaussian, Inc.  The licensee
 of this program is prohibited from giving any competitor of
 Gaussian, Inc. access to this program.  By using this program,
 the user acknowledges that Gaussian, Inc. is engaged in the
 business of creating and licensing software in the field of
 computational chemistry and represents and warrants to the
 licensee that it is not a competitor of Gaussian, Inc. and that
 it will not use this program in any manner prohibited above.
 ---------------------------------------------------------------
  

 Cite this work as:
 Gaussian 16, Revision C.02,
 M. J. Frisch, G. W. Trucks, H. B. Schlegel, G. E. Scuseria, 
 M. A. Robb, J. R. Cheeseman, G. Scalmani, V. Barone, 
 G. A. Petersson, H. Nakatsuji, X. Li, M. Caricato, A. V. Marenich, 
 J. Bloino, B. G. Janesko, R. Gomperts, B. Mennucci, H. P. Hratchian, 
 J. V. Ortiz, A. F. Izmaylov, J. L. Sonnenberg, D. Williams-Young, 
 F. Ding, F. Lipparini, F. Egidi, J. Goings, B. Peng, A. Petrone, 
 T. Henderson, D. Ranasinghe, V. G. Zakrzewski, J. Gao, N. Rega, 
 G. Zheng, W. Liang, M. Hada, M. Ehara, K. Toyota, R. Fukuda, 
 J. Hasegawa, M. Ishida, T. Nakajima, Y. Honda, O. Kitao, H. Nakai, 
 T. Vreven, K. Throssell, J. A. Montgomery, Jr., J. E. Peralta, 
 F. Ogliaro, M. J. Bearpark, J. J. Heyd, E. N. Brothers, K. N. Kudin, 
 V. N. Staroverov, T. A. Keith, R. Kobayashi, J. Normand, 
 K. Raghavachari, A. P. Rendell, J. C. Burant, S. S. Iyengar, 
 J. Tomasi, M. Cossi, J. M. Millam, M. Klene, C. Adamo, R. Cammi, 
 J. W. Ochterski, R. L. Martin, K. Morokuma, O. Farkas, 
 J. B. Foresman, and D. J. Fox, Gaussian, Inc., Wallingford CT, 2019.
 
 ******************************************
 Gaussian 16:  AS64L-G16RevC.02  7-Dec-2021
                10-Apr-2024 
 ******************************************
 %nprocshared=128
 Will use up to  128 processors via shared memory.
 %mem=30GB
 %chk=tbu_naphtoxanthene_chelpg.chk
 ----------------------------------------------------------------------
 # wb97xd/genecp scrf=(solvent=toluene,pcm) nosymm pop=(chelpg) scfcyc=
 300
 ----------------------------------------------------------------------
 1/38=1,172=1/1;
 2/12=2,15=1,17=6,18=5,40=1/2;
 3/5=7,11=2,16=1,17=8,25=1,30=1,70=2201,72=13,74=-58/1,2,3;
 4//1;
 5/5=2,7=300,38=5,53=13/2;
 6/7=2,8=2,9=2,10=2,15=8,20=3,28=1/1,2;
 99/5=1,9=1/99;
 -------------------------
 tbu_naphtoxanthene_chelpg
 -------------------------
 Symbolic Z-matrix:
 Charge =  0 Multiplicity = 1
 C                    -1.9528    1.40276   0.94201 
 C                    -0.60654   1.44598   1.36942 
 C                     0.21101   2.52832   1.12985 
 C                    -0.28142   3.65065   0.43429 
 C                    -1.61718   3.62418  -0.01418 
 C                    -2.41317   2.49858   0.24831 
 H                    -0.19506   0.59284   1.89896 
 H                     1.23995   2.52247   1.47306 
 C                    -2.15891   4.72015  -0.74078 
 O                    -3.71898   2.44555  -0.18815 
 C                    -3.50769   4.62696  -1.19564 
 C                    -4.25878   3.47303  -0.91428 
 C                    -4.06392   5.67477  -1.95917 
 C                    -5.5629    3.32821  -1.37624 
 C                    -5.38097   5.52684  -2.42776 
 C                    -6.09922   4.38938  -2.13788 
 H                    -5.83212   6.31715  -3.0177 
 H                    -7.11404   4.30323  -2.50592 
 B                    -2.93992   0.1917    1.20511 
 N                    -6.2801    2.14315  -1.11076 
 C                    -6.61063   1.91468   0.28898 
 H                    -7.39021   2.6055    0.64727 
 H                    -6.97343   0.89055   0.40647 
 H                    -5.72444   2.03054   0.90952 
 C                    -7.3929    1.84406  -1.99006 
 H                    -7.686     0.80301  -1.83406 
 H                    -8.27936   2.47384  -1.80649 
 H                    -7.09069   1.95847  -3.03244 
 C                    -3.25036   6.82409  -2.22311 
 H                    -3.67891   7.63596  -2.80149 
 C                    -1.97083   6.90714  -1.77086 
 H                    -1.37262   7.78683  -1.9848 
 C                    -1.38295   5.84155  -1.01787 
 C                    -0.03254   5.86516  -0.54619 
 C                     0.49504   4.81875   0.14562 
 H                     0.57562   6.73911  -0.75631 
 H                     1.52362   4.85476   0.48903 
 C                    -3.10699  -0.89849   0.03937 
 C                    -3.59832   0.13673   2.66643 
 C                    -2.71414  -2.2975    0.55972 
 H                    -3.35582  -2.63849   1.37475 
 H                    -2.79879  -3.02693  -0.25452 
 H                    -1.67763  -2.3228    0.91317 
 C                    -4.56528  -0.93592  -0.46757 
 H                    -4.88858   0.04445  -0.82957 
 H                    -4.63435  -1.64094  -1.30536 
 H                    -5.26632  -1.26865   0.29888 
 C                    -2.20966  -0.58422  -1.17176 
 H                    -2.47253   0.37516  -1.62567 
 H                    -1.1517   -0.54241  -0.89625 
 H                    -2.32717  -1.35915  -1.93858 
 C                    -4.92428  -0.62657   2.80205 
 H                    -4.8506   -1.66369   2.46921 
 H                    -5.23526  -0.64233   3.85355 
 H                    -5.72299  -0.14539   2.23195 
 C                    -2.53652  -0.57752   3.54471 
 H                    -1.58419  -0.0406    3.55815 
 H                    -2.89913  -0.61506   4.57862 
 H                    -2.34926  -1.60483   3.22272 
 C                    -3.80355   1.54738   3.253 
 H                    -2.86698   2.10744   3.30172 
 H                    -4.50861   2.1366    2.65941 
 H                    -4.20777   1.47548   4.26959 
 
 Symmetry turned off by external request.
 Stoichiometry    C28H32BNO
 Framework group  C1[X(C28H32BNO)]
 Deg. of freedom   183
 Full point group                 C1      NOp   1
                          Input orientation:                          
 ---------------------------------------------------------------------
 Center     Atomic      Atomic             Coordinates (Angstroms)
 Number     Number       Type             X           Y           Z
 ---------------------------------------------------------------------
      1          6           0       -1.952802    1.402756    0.942009
      2          6           0       -0.606536    1.445984    1.369416
      3          6           0        0.211012    2.528324    1.129849
      4          6           0       -0.281415    3.650654    0.434285
      5          6           0       -1.617179    3.624175   -0.014178
      6          6           0       -2.413165    2.498584    0.248312
      7          1           0       -0.195064    0.592835    1.898958
      8          1           0        1.239952    2.522474    1.473062
      9          6           0       -2.158908    4.720146   -0.740779
     10          8           0       -3.718978    2.445548   -0.188150
     11          6           0       -3.507689    4.626964   -1.195642
     12          6           0       -4.258776    3.473028   -0.914284
     13          6           0       -4.063923    5.674767   -1.959172
     14          6           0       -5.562900    3.328208   -1.376243
     15          6           0       -5.380969    5.526841   -2.427757
     16          6           0       -6.099219    4.389384   -2.137876
     17          1           0       -5.832118    6.317147   -3.017699
     18          1           0       -7.114045    4.303230   -2.505922
     19          5           0       -2.939923    0.191699    1.205112
     20          7           0       -6.280103    2.143148   -1.110763
     21          6           0       -6.610630    1.914678    0.288981
     22          1           0       -7.390209    2.605502    0.647274
     23          1           0       -6.973427    0.890548    0.406467
     24          1           0       -5.724438    2.030536    0.909523
     25          6           0       -7.392896    1.844061   -1.990056
     26          1           0       -7.686002    0.803008   -1.834062
     27          1           0       -8.279357    2.473844   -1.806492
     28          1           0       -7.090691    1.958469   -3.032442
     29          6           0       -3.250361    6.824089   -2.223105
     30          1           0       -3.678907    7.635964   -2.801487
     31          6           0       -1.970831    6.907137   -1.770855
     32          1           0       -1.372619    7.786829   -1.984796
     33          6           0       -1.382952    5.841552   -1.017867
     34          6           0       -0.032541    5.865158   -0.546189
     35          6           0        0.495041    4.818747    0.145622
     36          1           0        0.575621    6.739115   -0.756305
     37          1           0        1.523624    4.854758    0.489025
     38          6           0       -3.106988   -0.898486    0.039373
     39          6           0       -3.598316    0.136729    2.666432
     40          6           0       -2.714137   -2.297496    0.559719
     41          1           0       -3.355821   -2.638485    1.374750
     42          1           0       -2.798791   -3.026932   -0.254518
     43          1           0       -1.677634   -2.322796    0.913173
     44          6           0       -4.565283   -0.935915   -0.467572
     45          1           0       -4.888583    0.044453   -0.829567
     46          1           0       -4.634348   -1.640944   -1.305357
     47          1           0       -5.266321   -1.268651    0.298880
     48          6           0       -2.209656   -0.584223   -1.171764
     49          1           0       -2.472531    0.375163   -1.625672
     50          1           0       -1.151700   -0.542409   -0.896249
     51          1           0       -2.327172   -1.359152   -1.938578
     52          6           0       -4.924284   -0.626567    2.802053
     53          1           0       -4.850599   -1.663689    2.469208
     54          1           0       -5.235260   -0.642327    3.853553
     55          1           0       -5.722986   -0.145390    2.231950
     56          6           0       -2.536522   -0.577518    3.544711
     57          1           0       -1.584188   -0.040595    3.558145
     58          1           0       -2.899130   -0.615057    4.578623
     59          1           0       -2.349261   -1.604831    3.222718
     60          6           0       -3.803551    1.547376    3.253003
     61          1           0       -2.866977    2.107435    3.301717
     62          1           0       -4.508614    2.136602    2.659405
     63          1           0       -4.207770    1.475484    4.269593
 ---------------------------------------------------------------------
 Rotational constants (GHZ):           0.2119794           0.1405805           0.0991738
 General basis read from cards:  (5D, 7F)
 ======================================================================================================
                                       Pseudopotential Parameters
 ======================================================================================================
  Center     Atomic      Valence      Angular      Power
  Number     Number     Electrons     Momentum     of R      Exponent        Coefficient   SO-Coeffient
 ======================================================================================================
    1          6
                                   No pseudopotential on this center.
    2          6
                                   No pseudopotential on this center.
    3          6
                                   No pseudopotential on this center.
    4          6
                                   No pseudopotential on this center.
    5          6
                                   No pseudopotential on this center.
    6          6
                                   No pseudopotential on this center.
    7          1
                                   No pseudopotential on this center.
    8          1
                                   No pseudopotential on this center.
    9          6
                                   No pseudopotential on this center.
   10          8
                                   No pseudopotential on this center.
   11          6
                                   No pseudopotential on this center.
   12          6
                                   No pseudopotential on this center.
   13          6
                                   No pseudopotential on this center.
   14          6
                                   No pseudopotential on this center.
   15          6
                                   No pseudopotential on this center.
   16          6
                                   No pseudopotential on this center.
   17          1
                                   No pseudopotential on this center.
   18          1
                                   No pseudopotential on this center.
   19          5
                                   No pseudopotential on this center.
   20          7
                                   No pseudopotential on this center.
   21          6
                                   No pseudopotential on this center.
   22          1
                                   No pseudopotential on this center.
   23          1
                                   No pseudopotential on this center.
   24          1
                                   No pseudopotential on this center.
   25          6
                                   No pseudopotential on this center.
   26          1
                                   No pseudopotential on this center.
   27          1
                                   No pseudopotential on this center.
   28          1
                                   No pseudopotential on this center.
   29          6
                                   No pseudopotential on this center.
   30          1
                                   No pseudopotential on this center.
   31          6
                                   No pseudopotential on this center.
   32          1
                                   No pseudopotential on this center.
   33          6
                                   No pseudopotential on this center.
   34          6
                                   No pseudopotential on this center.
   35          6
                                   No pseudopotential on this center.
   36          1
                                   No pseudopotential on this center.
   37          1
                                   No pseudopotential on this center.
   38          6
                                   No pseudopotential on this center.
   39          6
                                   No pseudopotential on this center.
   40          6
                                   No pseudopotential on this center.
   41          1
                                   No pseudopotential on this center.
   42          1
                                   No pseudopotential on this center.
   43          1
                                   No pseudopotential on this center.
   44          6
                                   No pseudopotential on this center.
   45          1
                                   No pseudopotential on this center.
   46          1
                                   No pseudopotential on this center.
   47          1
                                   No pseudopotential on this center.
   48          6
                                   No pseudopotential on this center.
   49          1
                                   No pseudopotential on this center.
   50          1
                                   No pseudopotential on this center.
   51          1
                                   No pseudopotential on this center.
   52          6
                                   No pseudopotential on this center.
   53          1
                                   No pseudopotential on this center.
   54          1
                                   No pseudopotential on this center.
   55          1
                                   No pseudopotential on this center.
   56          6
                                   No pseudopotential on this center.
   57          1
                                   No pseudopotential on this center.
   58          1
                                   No pseudopotential on this center.
   59          1
                                   No pseudopotential on this center.
   60          6
                                   No pseudopotential on this center.
   61          1
                                   No pseudopotential on this center.
   62          1
                                   No pseudopotential on this center.
   63          1
                                   No pseudopotential on this center.
 ======================================================================================================
   906 basis functions,  1404 primitive gaussians,   937 cartesian basis functions
   110 alpha electrons      110 beta electrons
       nuclear repulsion energy      3167.7314233611 Hartrees.
 NAtoms=   63 NActive=   63 NUniq=   63 SFac= 1.00D+00 NAtFMM=   60 NAOKFM=T Big=T
 Integral buffers will be    131072 words long.
 Raffenetti 2 integral format.
 Two-electron integral symmetry is turned off.
 Nuclear repulsion after empirical dispersion term =     3167.6623611557 Hartrees.
 ------------------------------------------------------------------------------
 Polarizable Continuum Model (PCM)
 =================================
 Model                : PCM.
 Atomic radii         : UFF (Universal Force Field).
 Polarization charges : Total charges.
 Charge compensation  : None.
 Solution method      : On-the-fly selection.
 Cavity type          : Scaled VdW (van der Waals Surface) (Alpha=1.100).
 Cavity algorithm     : GePol (No added spheres)
                        Default sphere list used, NSphG=   63.
                        Lebedev-Laikov grids with approx.  5.0 points / Ang**2.
                        Smoothing algorithm: York/Karplus (Gamma=1.0000).
                        Polarization charges: spherical gaussians, with
                                              point-specific exponents (IZeta= 3).
                        Self-potential: point-specific (ISelfS= 7).
                        Self-field    : sphere-specific E.n sum rule (ISelfD= 2).
 Solvent              : Toluene, Eps=   2.374100 Eps(inf)=   2.238315
 ------------------------------------------------------------------------------
 One-electron integrals computed using PRISM.
   1 Symmetry operations used in ECPInt.
 ECPInt:  NShTT=   60031 NPrTT=  197532 LenC2=   52554 LenP2D=  116565.
 LDataN:  DoStor=T MaxTD1= 4 Len=   56
 Number of processors reduced to  52 by ecpmxn.
 NBasis=   906 RedAO= T EigKep=  1.19D-06  NBF=   906
 NBsUse=   890 1.00D-06 EigRej=  9.86D-07 NBFU=   890
 ExpMin= 3.15D-02 ExpMax= 8.59D+03 ExpMxC= 1.30D+03 IAcc=3 IRadAn=         5 AccDes= 0.00D+00
 Harris functional with IExCor= 4639 and IRadAn=       5 diagonalized for initial guess.
 HarFok:  IExCor= 4639 AccDes= 0.00D+00 IRadAn=         5 IDoV= 1 UseB2=F ITyADJ=14
 ICtDFT=  3500011 ScaDFX=  1.000000  1.000000  1.000000  1.000000
 FoFCou: FMM=F IPFlag=           0 FMFlag=      100000 FMFlg1=        2001
         NFxFlg=           0 DoJE=T BraDBF=F KetDBF=T FulRan=T
         wScrn=  0.000000 ICntrl=       500 IOpCl=  0 I1Cent=   200000004 NGrid=           0
         NMat0=    1 NMatS0=      1 NMatT0=    0 NMatD0=    1 NMtDS0=    0 NMtDT0=    0
 Symmetry not used in FoFCou.
 Requested convergence on RMS density matrix=1.00D-08 within 300 cycles.
 Requested convergence on MAX density matrix=1.00D-06.
 Requested convergence on             energy=1.00D-06.
 No special actions if energy rises.
 Inv3:  Mode=1 IEnd=    40959075.
 Iteration    1 A*A^-1 deviation from unit magnitude is 8.88D-15 for   3684.
 Iteration    1 A*A^-1 deviation from orthogonality  is 4.25D-15 for   3690   2345.
 Iteration    1 A^-1*A deviation from unit magnitude is 8.88D-15 for   3684.
 Iteration    1 A^-1*A deviation from orthogonality  is 1.72D-15 for   3661   2862.
 Error on total polarization charges =  0.01402
 SCF Done:  E(RwB97XD) =  -1241.04012885     A.U. after   17 cycles
            NFock= 17  Conv=0.75D-08     -V/T= 2.0044

 **********************************************************************

            Population analysis using the SCF Density.

 **********************************************************************

 Alpha  occ. eigenvalues --  -19.30879 -14.44283 -10.35930 -10.35733 -10.32811
 Alpha  occ. eigenvalues --  -10.30832 -10.30740 -10.30608 -10.30566 -10.30446
 Alpha  occ. eigenvalues --  -10.30343 -10.30327 -10.30202 -10.29561 -10.29553
 Alpha  occ. eigenvalues --  -10.29470 -10.29418 -10.29414 -10.29396 -10.28989
 Alpha  occ. eigenvalues --  -10.28767 -10.27724 -10.27438 -10.27391 -10.27237
 Alpha  occ. eigenvalues --  -10.26919 -10.26612 -10.26373 -10.25932 -10.25741
 Alpha  occ. eigenvalues --   -6.85224  -1.20801  -1.04870  -1.00213  -0.97880
 Alpha  occ. eigenvalues --   -0.93805  -0.91746  -0.90670  -0.89373  -0.89291
 Alpha  occ. eigenvalues --   -0.87195  -0.85768  -0.83219  -0.81542  -0.80716
 Alpha  occ. eigenvalues --   -0.78426  -0.77845  -0.77376  -0.76733  -0.75997
 Alpha  occ. eigenvalues --   -0.75565  -0.73496  -0.72974  -0.69773  -0.67169
 Alpha  occ. eigenvalues --   -0.66186  -0.65903  -0.63961  -0.63333  -0.61243
 Alpha  occ. eigenvalues --   -0.60969  -0.58867  -0.57751  -0.57223  -0.56796
 Alpha  occ. eigenvalues --   -0.56287  -0.55232  -0.54766  -0.54452  -0.53595
 Alpha  occ. eigenvalues --   -0.52849  -0.52500  -0.52203  -0.51930  -0.51511
 Alpha  occ. eigenvalues --   -0.51043  -0.50872  -0.50196  -0.49263  -0.48752
 Alpha  occ. eigenvalues --   -0.48313  -0.48108  -0.47505  -0.47436  -0.47057
 Alpha  occ. eigenvalues --   -0.46605  -0.46135  -0.45875  -0.45636  -0.45520
 Alpha  occ. eigenvalues --   -0.45356  -0.44696  -0.44423  -0.43792  -0.42312
 Alpha  occ. eigenvalues --   -0.41959  -0.41731  -0.41091  -0.40734  -0.40031
 Alpha  occ. eigenvalues --   -0.39864  -0.39579  -0.37613  -0.36184  -0.35759
 Alpha  occ. eigenvalues --   -0.34499  -0.33993  -0.31063  -0.28242  -0.25391
 Alpha virt. eigenvalues --    0.01103   0.01618   0.03809   0.03967   0.04378
 Alpha virt. eigenvalues --    0.04475   0.04678   0.04926   0.05390   0.05456
 Alpha virt. eigenvalues --    0.05699   0.06194   0.06517   0.06782   0.06912
 Alpha virt. eigenvalues --    0.07190   0.07796   0.08375   0.08431   0.08493
 Alpha virt. eigenvalues --    0.08571   0.09226   0.09711   0.10242   0.10432
 Alpha virt. eigenvalues --    0.10570   0.10665   0.10926   0.11204   0.11489
 Alpha virt. eigenvalues --    0.11735   0.12051   0.12116   0.12534   0.12751
 Alpha virt. eigenvalues --    0.13472   0.13589   0.13834   0.14212   0.14402
 Alpha virt. eigenvalues --    0.14529   0.14624   0.15003   0.15080   0.15200
 Alpha virt. eigenvalues --    0.15441   0.15716   0.15740   0.16302   0.16384
 Alpha virt. eigenvalues --    0.16567   0.17028   0.17309   0.17589   0.17813
 Alpha virt. eigenvalues --    0.18046   0.18123   0.18276   0.18434   0.18535
 Alpha virt. eigenvalues --    0.18813   0.18852   0.18965   0.19150   0.19285
 Alpha virt. eigenvalues --    0.19376   0.19473   0.19662   0.19920   0.20104
 Alpha virt. eigenvalues --    0.20194   0.20474   0.20856   0.21098   0.21165
 Alpha virt. eigenvalues --    0.21418   0.21519   0.21716   0.21819   0.22045
 Alpha virt. eigenvalues --    0.22383   0.22457   0.22611   0.22753   0.23072
 Alpha virt. eigenvalues --    0.23285   0.23575   0.23728   0.23857   0.24153
 Alpha virt. eigenvalues --    0.24344   0.24831   0.25112   0.25209   0.25345
 Alpha virt. eigenvalues --    0.25442   0.25628   0.25748   0.25882   0.26085
 Alpha virt. eigenvalues --    0.26355   0.26388   0.26814   0.26923   0.27013
 Alpha virt. eigenvalues --    0.27346   0.27463   0.27944   0.28070   0.28277
 Alpha virt. eigenvalues --    0.28617   0.28705   0.28991   0.29175   0.29487
 Alpha virt. eigenvalues --    0.29634   0.29922   0.30053   0.30200   0.30427
 Alpha virt. eigenvalues --    0.30498   0.30847   0.31029   0.31183   0.31320
 Alpha virt. eigenvalues --    0.31339   0.31570   0.31741   0.32026   0.32502
 Alpha virt. eigenvalues --    0.32613   0.32882   0.33140   0.33190   0.33409
 Alpha virt. eigenvalues --    0.33570   0.33851   0.34091   0.34505   0.34757
 Alpha virt. eigenvalues --    0.34935   0.35090   0.35365   0.35492   0.35830
 Alpha virt. eigenvalues --    0.36076   0.36431   0.36533   0.36572   0.36958
 Alpha virt. eigenvalues --    0.37034   0.37082   0.37446   0.37681   0.37798
 Alpha virt. eigenvalues --    0.38124   0.38230   0.38311   0.38597   0.39086
 Alpha virt. eigenvalues --    0.39301   0.39374   0.39551   0.39750   0.40006
 Alpha virt. eigenvalues --    0.40186   0.40359   0.40633   0.40692   0.41009
 Alpha virt. eigenvalues --    0.41194   0.41570   0.42098   0.42344   0.42534
 Alpha virt. eigenvalues --    0.42868   0.43078   0.43178   0.43680   0.44117
 Alpha virt. eigenvalues --    0.44325   0.44806   0.45223   0.45481   0.45826
 Alpha virt. eigenvalues --    0.46123   0.46665   0.46975   0.47098   0.47509
 Alpha virt. eigenvalues --    0.47601   0.48224   0.48336   0.49489   0.49666
 Alpha virt. eigenvalues --    0.50114   0.50289   0.50845   0.51273   0.51462
 Alpha virt. eigenvalues --    0.52451   0.52944   0.53847   0.54612   0.55372
 Alpha virt. eigenvalues --    0.56080   0.56112   0.56503   0.57143   0.57460
 Alpha virt. eigenvalues --    0.57919   0.58174   0.58715   0.59199   0.59571
 Alpha virt. eigenvalues --    0.60950   0.61496   0.61821   0.61939   0.62378
 Alpha virt. eigenvalues --    0.62802   0.63265   0.63383   0.63844   0.64376
 Alpha virt. eigenvalues --    0.64992   0.65211   0.65571   0.66221   0.66666
 Alpha virt. eigenvalues --    0.67649   0.67737   0.68145   0.68301   0.68526
 Alpha virt. eigenvalues --    0.68845   0.69195   0.69598   0.69783   0.70038
 Alpha virt. eigenvalues --    0.70111   0.70514   0.70811   0.71341   0.71481
 Alpha virt. eigenvalues --    0.71638   0.72141   0.72250   0.72741   0.72804
 Alpha virt. eigenvalues --    0.73217   0.73652   0.74040   0.74296   0.74359
 Alpha virt. eigenvalues --    0.74659   0.74987   0.75506   0.75865   0.76186
 Alpha virt. eigenvalues --    0.76646   0.76850   0.77436   0.77602   0.78123
 Alpha virt. eigenvalues --    0.78165   0.79000   0.79151   0.79691   0.79831
 Alpha virt. eigenvalues --    0.80247   0.80483   0.81299   0.81918   0.82112
 Alpha virt. eigenvalues --    0.82401   0.82572   0.83246   0.83517   0.83737
 Alpha virt. eigenvalues --    0.84080   0.84510   0.84645   0.84911   0.85314
 Alpha virt. eigenvalues --    0.85642   0.86428   0.86805   0.87060   0.87247
 Alpha virt. eigenvalues --    0.87380   0.87881   0.88049   0.88333   0.88652
 Alpha virt. eigenvalues --    0.88941   0.89251   0.89736   0.90041   0.90209
 Alpha virt. eigenvalues --    0.90646   0.91009   0.91573   0.91998   0.92315
 Alpha virt. eigenvalues --    0.92863   0.93421   0.93657   0.93980   0.94366
 Alpha virt. eigenvalues --    0.95069   0.95232   0.95589   0.96073   0.96234
 Alpha virt. eigenvalues --    0.97641   0.98079   0.98869   0.99272   0.99674
 Alpha virt. eigenvalues --    1.00062   1.00480   1.00730   1.01699   1.02859
 Alpha virt. eigenvalues --    1.03087   1.03658   1.03976   1.04050   1.04700
 Alpha virt. eigenvalues --    1.05679   1.06012   1.06299   1.06569   1.06959
 Alpha virt. eigenvalues --    1.07585   1.08218   1.08297   1.08688   1.09229
 Alpha virt. eigenvalues --    1.09537   1.10422   1.10755   1.12039   1.12256
 Alpha virt. eigenvalues --    1.12360   1.12878   1.13692   1.14316   1.15264
 Alpha virt. eigenvalues --    1.15514   1.16027   1.16263   1.17603   1.18152
 Alpha virt. eigenvalues --    1.18526   1.19046   1.19570   1.20071   1.20840
 Alpha virt. eigenvalues --    1.21875   1.22059   1.22450   1.23221   1.24092
 Alpha virt. eigenvalues --    1.24372   1.24450   1.25029   1.25868   1.26598
 Alpha virt. eigenvalues --    1.27531   1.27852   1.28207   1.28616   1.29925
 Alpha virt. eigenvalues --    1.31227   1.31907   1.32504   1.32928   1.35663
 Alpha virt. eigenvalues --    1.36417   1.37091   1.37763   1.38661   1.40178
 Alpha virt. eigenvalues --    1.40684   1.41379   1.42299   1.44135   1.44641
 Alpha virt. eigenvalues --    1.45669   1.46929   1.48765   1.49158   1.50553
 Alpha virt. eigenvalues --    1.51719   1.52235   1.53607   1.54308   1.54637
 Alpha virt. eigenvalues --    1.55097   1.55870   1.56488   1.56730   1.57032
 Alpha virt. eigenvalues --    1.57222   1.57637   1.58083   1.58628   1.58896
 Alpha virt. eigenvalues --    1.59332   1.60143   1.60536   1.60970   1.61794
 Alpha virt. eigenvalues --    1.62030   1.62281   1.62892   1.63092   1.63498
 Alpha virt. eigenvalues --    1.63716   1.64226   1.65369   1.65554   1.66182
 Alpha virt. eigenvalues --    1.66386   1.66854   1.67469   1.67776   1.68151
 Alpha virt. eigenvalues --    1.68480   1.68702   1.69284   1.69354   1.69940
 Alpha virt. eigenvalues --    1.70700   1.71064   1.71628   1.71730   1.72156
 Alpha virt. eigenvalues --    1.72535   1.73201   1.73975   1.74233   1.74960
 Alpha virt. eigenvalues --    1.75660   1.76169   1.76303   1.77047   1.77570
 Alpha virt. eigenvalues --    1.78839   1.79053   1.79491   1.80317   1.80649
 Alpha virt. eigenvalues --    1.81175   1.81279   1.81743   1.82252   1.82418
 Alpha virt. eigenvalues --    1.82697   1.82966   1.83397   1.84210   1.84465
 Alpha virt. eigenvalues --    1.84745   1.85311   1.85592   1.87078   1.87396
 Alpha virt. eigenvalues --    1.87820   1.87871   1.88627   1.89544   1.89931
 Alpha virt. eigenvalues --    1.90505   1.90787   1.90978   1.92395   1.93008
 Alpha virt. eigenvalues --    1.93586   1.93895   1.94385   1.94917   1.95316
 Alpha virt. eigenvalues --    1.95853   1.96050   1.97047   1.97578   1.98528
 Alpha virt. eigenvalues --    1.98889   1.99277   1.99549   1.99985   2.00683
 Alpha virt. eigenvalues --    2.01179   2.01776   2.02707   2.03487   2.03915
 Alpha virt. eigenvalues --    2.05048   2.06202   2.06888   2.07709   2.08300
 Alpha virt. eigenvalues --    2.09214   2.09405   2.10179   2.10542   2.11349
 Alpha virt. eigenvalues --    2.11803   2.11954   2.13181   2.13589   2.14671
 Alpha virt. eigenvalues --    2.15072   2.15262   2.16413   2.16807   2.16940
 Alpha virt. eigenvalues --    2.17947   2.18137   2.19010   2.19595   2.20015
 Alpha virt. eigenvalues --    2.20903   2.21691   2.22557   2.22963   2.23605
 Alpha virt. eigenvalues --    2.23942   2.24679   2.25307   2.25735   2.26491
 Alpha virt. eigenvalues --    2.27552   2.28099   2.29202   2.30204   2.30612
 Alpha virt. eigenvalues --    2.31765   2.32351   2.33543   2.34326   2.36375
 Alpha virt. eigenvalues --    2.36765   2.37985   2.38839   2.39618   2.39973
 Alpha virt. eigenvalues --    2.40204   2.41898   2.42255   2.44190   2.45064
 Alpha virt. eigenvalues --    2.45343   2.47605   2.47803   2.48907   2.49212
 Alpha virt. eigenvalues --    2.50936   2.51789   2.51995   2.53741   2.54927
 Alpha virt. eigenvalues --    2.55326   2.55727   2.56630   2.57648   2.58118
 Alpha virt. eigenvalues --    2.58650   2.59388   2.60329   2.60589   2.61999
 Alpha virt. eigenvalues --    2.62464   2.62966   2.64077   2.64289   2.64962
 Alpha virt. eigenvalues --    2.65676   2.65909   2.66206   2.66589   2.67589
 Alpha virt. eigenvalues --    2.68013   2.68303   2.68780   2.68978   2.69179
 Alpha virt. eigenvalues --    2.69762   2.70020   2.70130   2.71086   2.71962
 Alpha virt. eigenvalues --    2.72820   2.74318   2.74966   2.75559   2.76690
 Alpha virt. eigenvalues --    2.77006   2.77240   2.77882   2.78383   2.79327
 Alpha virt. eigenvalues --    2.80679   2.81420   2.82081   2.82342   2.83435
 Alpha virt. eigenvalues --    2.83976   2.84159   2.84578   2.85405   2.85588
 Alpha virt. eigenvalues --    2.86242   2.86517   2.86837   2.87569   2.88633
 Alpha virt. eigenvalues --    2.89058   2.89418   2.90099   2.90105   2.91466
 Alpha virt. eigenvalues --    2.91695   2.91922   2.92156   2.92797   2.93514
 Alpha virt. eigenvalues --    2.94302   2.94699   2.95284   2.95350   2.95902
 Alpha virt. eigenvalues --    2.96433   2.96577   2.97267   2.97725   2.98785
 Alpha virt. eigenvalues --    2.99140   3.00300   3.01456   3.02182   3.02655
 Alpha virt. eigenvalues --    3.03627   3.03982   3.04424   3.06607   3.07696
 Alpha virt. eigenvalues --    3.08307   3.09939   3.11708   3.11941   3.13022
 Alpha virt. eigenvalues --    3.14259   3.16785   3.17447   3.19641   3.21464
 Alpha virt. eigenvalues --    3.21952   3.23216   3.23531   3.23738   3.26357
 Alpha virt. eigenvalues --    3.26437   3.27313   3.29075   3.30718   3.30870
 Alpha virt. eigenvalues --    3.32240   3.34087   3.35840   3.35960   3.37619
 Alpha virt. eigenvalues --    3.38307   3.39345   3.39775   3.41134   3.42526
 Alpha virt. eigenvalues --    3.44662   3.46695   3.48720   3.49587   3.52632
 Alpha virt. eigenvalues --    3.53081   3.55618   3.56841   3.57260   3.57955
 Alpha virt. eigenvalues --    3.62496   3.62889   3.64611   3.66557   3.66798
 Alpha virt. eigenvalues --    3.67378   3.69690   3.70865   3.74629   3.77357
 Alpha virt. eigenvalues --    3.80485   3.85008   3.85876   3.87383   3.88939
 Alpha virt. eigenvalues --    3.89206   3.89482   3.90585   3.91311   3.91666
 Alpha virt. eigenvalues --    3.92143   3.92880   3.93989   3.94235   3.94715
 Alpha virt. eigenvalues --    3.95184   3.95598   3.97062   3.97405   3.97484
 Alpha virt. eigenvalues --    4.00520   4.04211   4.08012   4.14624   4.16021
 Alpha virt. eigenvalues --    4.18048   4.19321   4.19817   4.21539   4.24486
 Alpha virt. eigenvalues --    4.35336   4.38589   4.39647   4.39812   4.40126
 Alpha virt. eigenvalues --    4.40804   4.43229   4.49314   4.50939   4.73751
 Alpha virt. eigenvalues --    4.93968   4.95919   4.96614   4.98997   5.00135
 Alpha virt. eigenvalues --    5.15887   5.24931   5.69651   6.17127  14.90405
 Alpha virt. eigenvalues --   23.63214  23.85652  23.95043  23.96597  24.00259
 Alpha virt. eigenvalues --   24.00907  24.06125  24.08983  24.09800  24.11253
 Alpha virt. eigenvalues --   24.12521  24.12948  24.13130  24.13871  24.14783
 Alpha virt. eigenvalues --   24.15368  24.16656  24.17530  24.17887  24.19147
 Alpha virt. eigenvalues --   24.19858  24.21571  24.22651  24.29009  24.32312
 Alpha virt. eigenvalues --   24.33274  24.33871  24.34254  35.76114  50.19533
          Condensed to atoms (all electrons):
 Mulliken charges:
               1
     1  C    0.500100
     2  C   -0.142740
     3  C   -0.226056
     4  C    0.172157
     5  C    0.044965
     6  C   -0.241423
     7  H    0.228774
     8  H    0.227042
     9  C   -0.129327
    10  O    0.095160
    11  C    0.173594
    12  C    0.121367
    13  C    0.323950
    14  C   -0.195240
    15  C   -0.247360
    16  C   -0.276887
    17  H    0.203183
    18  H    0.208346
    19  B   -1.215943
    20  N    0.328188
    21  C   -0.409887
    22  H    0.182702
    23  H    0.190722
    24  H    0.066885
    25  C   -0.418193
    26  H    0.167303
    27  H    0.151393
    28  H    0.188516
    29  C   -0.443386
    30  H    0.188490
    31  C   -0.272670
    32  H    0.193915
    33  C    0.291331
    34  C   -0.283994
    35  C   -0.538087
    36  H    0.199175
    37  H    0.197604
    38  C   -0.043892
    39  C   -0.072278
    40  C   -0.408511
    41  H    0.174459
    42  H    0.171954
    43  H    0.193744
    44  C   -0.766419
    45  H    0.357570
    46  H    0.168534
    47  H    0.137698
    48  C   -0.371611
    49  H    0.227586
    50  H    0.200238
    51  H    0.176878
    52  C   -0.367287
    53  H    0.170542
    54  H    0.170752
    55  H    0.091255
    56  C   -0.523650
    57  H    0.172403
    58  H    0.180615
    59  H    0.176882
    60  C   -0.412812
    61  H    0.245448
    62  H    0.148025
    63  H    0.198205
 Sum of Mulliken charges =  -0.00000
 Mulliken charges with hydrogens summed into heavy atoms:
               1
     1  C    0.500100
     2  C    0.086034
     3  C    0.000986
     4  C    0.172157
     5  C    0.044965
     6  C   -0.241423
     9  C   -0.129327
    10  O    0.095160
    11  C    0.173594
    12  C    0.121367
    13  C    0.323950
    14  C   -0.195240
    15  C   -0.044177
    16  C   -0.068541
    19  B   -1.215943
    20  N    0.328188
    21  C    0.030423
    25  C    0.089018
    29  C   -0.254896
    31  C   -0.078755
    33  C    0.291331
    34  C   -0.084819
    35  C   -0.340483
    38  C   -0.043892
    39  C   -0.072278
    40  C    0.131647
    44  C   -0.102617
    48  C    0.233091
    52  C    0.065263
    56  C    0.006250
    60  C    0.178866
 Electronic spatial extent (au):  <R**2>=          24628.7344
 Charge=             -0.0000 electrons
 Dipole moment (field-independent basis, Debye):
    X=             -1.0532    Y=              0.0833    Z=              0.1060  Tot=              1.0618
 Quadrupole moment (field-independent basis, Debye-Ang):
   XX=           -162.7357   YY=           -178.6741   ZZ=           -187.1947
   XY=             -0.0973   XZ=              7.6896   YZ=             -8.4676
 Traceless Quadrupole moment (field-independent basis, Debye-Ang):
   XX=             13.4658   YY=             -2.4726   ZZ=            -10.9932
   XY=             -0.0973   XZ=              7.6896   YZ=             -8.4676
 Octapole moment (field-independent basis, Debye-Ang**2):
  XXX=           1616.5081  YYY=          -1261.3280  ZZZ=              9.2100  XYY=            607.9057
  XXY=           -394.3414  XXZ=            -56.7253  XZZ=            587.6309  YZZ=           -455.2377
  YYZ=            -73.3029  XYZ=             46.6478
 Hexadecapole moment (field-independent basis, Debye-Ang**3):
 XXXX=         -15367.4712 YYYY=         -13353.0144 ZZZZ=          -3510.6700 XXXY=           3469.2372
 XXXZ=            -11.3806 YYYX=           3912.4550 YYYZ=            817.2557 ZZZX=           -490.5358
 ZZZY=           1426.8322 XXYY=          -5013.8187 XXZZ=          -3246.5280 YYZZ=          -2889.4980
 XXYZ=            200.7145 YYXZ=            136.1114 ZZXY=           1221.3290
 N-N= 3.167662361156D+03 E-N=-9.216749897351D+03  KE= 1.235544921922D+03
 Breneman (CHELPG) radii used.
 Generate Potential Derived Charges using the Breneman model, NDens= 1.
 Grid spacing= 0.300 Box extension= 2.800
 NStep X,Y,Z=   53     56     46   Total possible points=      136528
 Number of Points to Fit=   27863

 **********************************************************************

            Electrostatic Properties Using The SCF Density.

 **********************************************************************

       Atomic Center    1 is at  -1.952802  1.402756  0.942009
       Atomic Center    2 is at  -0.606536  1.445984  1.369416
       Atomic Center    3 is at   0.211012  2.528324  1.129849
       Atomic Center    4 is at  -0.281415  3.650654  0.434285
       Atomic Center    5 is at  -1.617179  3.624175 -0.014178
       Atomic Center    6 is at  -2.413165  2.498584  0.248312
       Atomic Center    7 is at  -0.195064  0.592835  1.898958
       Atomic Center    8 is at   1.239952  2.522474  1.473062
       Atomic Center    9 is at  -2.158908  4.720146 -0.740779
       Atomic Center   10 is at  -3.718978  2.445548 -0.188150
       Atomic Center   11 is at  -3.507689  4.626964 -1.195642
       Atomic Center   12 is at  -4.258776  3.473028 -0.914284
       Atomic Center   13 is at  -4.063923  5.674767 -1.959172
       Atomic Center   14 is at  -5.562900  3.328208 -1.376243
       Atomic Center   15 is at  -5.380969  5.526841 -2.427757
       Atomic Center   16 is at  -6.099219  4.389384 -2.137876
       Atomic Center   17 is at  -5.832118  6.317147 -3.017699
       Atomic Center   18 is at  -7.114045  4.303230 -2.505922
       Atomic Center   19 is at  -2.939923  0.191699  1.205112
       Atomic Center   20 is at  -6.280103  2.143148 -1.110763
       Atomic Center   21 is at  -6.610630  1.914678  0.288981
       Atomic Center   22 is at  -7.390209  2.605502  0.647274
       Atomic Center   23 is at  -6.973427  0.890548  0.406467
       Atomic Center   24 is at  -5.724438  2.030536  0.909523
       Atomic Center   25 is at  -7.392896  1.844061 -1.990056
       Atomic Center   26 is at  -7.686002  0.803008 -1.834062
       Atomic Center   27 is at  -8.279357  2.473844 -1.806492
       Atomic Center   28 is at  -7.090691  1.958469 -3.032442
       Atomic Center   29 is at  -3.250361  6.824089 -2.223105
       Atomic Center   30 is at  -3.678907  7.635964 -2.801487
       Atomic Center   31 is at  -1.970831  6.907137 -1.770855
       Atomic Center   32 is at  -1.372619  7.786829 -1.984796
       Atomic Center   33 is at  -1.382952  5.841552 -1.017867
       Atomic Center   34 is at  -0.032541  5.865158 -0.546189
       Atomic Center   35 is at   0.495041  4.818747  0.145622
       Atomic Center   36 is at   0.575621  6.739115 -0.756305
       Atomic Center   37 is at   1.523624  4.854758  0.489025
       Atomic Center   38 is at  -3.106988 -0.898486  0.039373
       Atomic Center   39 is at  -3.598316  0.136729  2.666432
       Atomic Center   40 is at  -2.714137 -2.297496  0.559719
       Atomic Center   41 is at  -3.355821 -2.638485  1.374750
       Atomic Center   42 is at  -2.798791 -3.026932 -0.254518
       Atomic Center   43 is at  -1.677634 -2.322796  0.913173
       Atomic Center   44 is at  -4.565283 -0.935915 -0.467572
       Atomic Center   45 is at  -4.888583  0.044453 -0.829567
       Atomic Center   46 is at  -4.634348 -1.640944 -1.305357
       Atomic Center   47 is at  -5.266321 -1.268651  0.298880
       Atomic Center   48 is at  -2.209656 -0.584223 -1.171764
       Atomic Center   49 is at  -2.472531  0.375163 -1.625672
       Atomic Center   50 is at  -1.151700 -0.542409 -0.896249
       Atomic Center   51 is at  -2.327172 -1.359152 -1.938578
       Atomic Center   52 is at  -4.924284 -0.626567  2.802053
       Atomic Center   53 is at  -4.850599 -1.663689  2.469208
       Atomic Center   54 is at  -5.235260 -0.642327  3.853553
       Atomic Center   55 is at  -5.722986 -0.145390  2.231950
       Atomic Center   56 is at  -2.536522 -0.577518  3.544711
       Atomic Center   57 is at  -1.584188 -0.040595  3.558145
       Atomic Center   58 is at  -2.899130 -0.615057  4.578623
       Atomic Center   59 is at  -2.349261 -1.604831  3.222718
       Atomic Center   60 is at  -3.803551  1.547376  3.253003
       Atomic Center   61 is at  -2.866977  2.107435  3.301717
       Atomic Center   62 is at  -4.508614  2.136602  2.659405
       Atomic Center   63 is at  -4.207770  1.475484  4.269593
   27863 points will be used for fitting atomic charges
 Fitting point charges to electrostatic potential
 Charges from ESP fit, RMS=   0.00407 RRMS=   0.40022:
 ESP charges:
               1
     1  C   -0.208400
     2  C    0.039539
     3  C   -0.365126
     4  C    0.247308
     5  C   -0.137396
     6  C    0.275795
     7  H    0.081809
     8  H    0.149885
     9  C    0.046693
    10  O   -0.151491
    11  C   -0.064828
    12  C    0.124998
    13  C    0.201217
    14  C    0.018180
    15  C   -0.342976
    16  C   -0.067163
    17  H    0.156436
    18  H    0.121861
    19  B    0.252510
    20  N   -0.114841
    21  C    0.099610
    22  H   -0.019896
    23  H    0.041103
    24  H   -0.014302
    25  C   -0.134058
    26  H    0.075419
    27  H    0.049839
    28  H    0.062459
    29  C   -0.212006
    30  H    0.132912
    31  C   -0.188144
    32  H    0.128467
    33  C    0.098618
    34  C   -0.165005
    35  C   -0.247509
    36  H    0.127325
    37  H    0.142012
    38  C    0.273974
    39  C    0.327807
    40  C   -0.298951
    41  H    0.052852
    42  H    0.045919
    43  H    0.067532
    44  C   -0.163286
    45  H   -0.061096
    46  H    0.035366
    47  H    0.031529
    48  C   -0.071602
    49  H   -0.049545
    50  H   -0.051460
    51  H    0.032170
    52  C   -0.441323
    53  H    0.097253
    54  H    0.085555
    55  H    0.080563
    56  C   -0.117026
    57  H    0.005200
    58  H    0.023308
    59  H    0.005474
    60  C   -0.169799
    61  H   -0.037809
    62  H    0.002678
    63  H    0.053865
 Sum of ESP charges =   0.00000
 ESP charges with hydrogens summed into heavy atoms:
               1
     1  C   -0.208400
     2  C    0.121349
     3  C   -0.215241
     4  C    0.247308
     5  C   -0.137396
     6  C    0.275795
     9  C    0.046693
    10  O   -0.151491
    11  C   -0.064828
    12  C    0.124998
    13  C    0.201217
    14  C    0.018180
    15  C   -0.186540
    16  C    0.054698
    19  B    0.252510
    20  N   -0.114841
    21  C    0.106515
    25  C    0.053659
    29  C   -0.079095
    31  C   -0.059677
    33  C    0.098618
    34  C   -0.037680
    35  C   -0.105497
    38  C    0.273974
    39  C    0.327807
    40  C   -0.132648
    44  C   -0.157487
    48  C   -0.140438
    52  C   -0.177952
    56  C   -0.083043
    60  C   -0.151065
 Charge=   0.00000 Dipole=    -1.0387     0.2666     0.0967 Tot=     1.0767
 -----------------------------------------------------------------

              Electrostatic Properties (Atomic Units)

 -----------------------------------------------------------------
    Center     Electric         -------- Electric Field --------
               Potential          X             Y             Z
 -----------------------------------------------------------------
    1 Atom    -14.791261
    2 Atom    -14.768254
    3 Atom    -14.777065
    4 Atom    -14.762220
    5 Atom    -14.762178
    6 Atom    -14.707712
    7 Atom     -1.104209
    8 Atom     -1.103977
    9 Atom    -14.761014
   10 Atom    -22.307960
   11 Atom    -14.759273
   12 Atom    -14.705019
   13 Atom    -14.763039
   14 Atom    -14.733957
   15 Atom    -14.774408
   16 Atom    -14.769226
   17 Atom     -1.101417
   18 Atom     -1.096406
   19 Atom    -11.462980
   20 Atom    -18.380170
   21 Atom    -14.751451
   22 Atom     -1.119337
   23 Atom     -1.112820
   24 Atom     -1.115599
   25 Atom    -14.746741
   26 Atom     -1.109978
   27 Atom     -1.113768
   28 Atom     -1.109186
   29 Atom    -14.771272
   30 Atom     -1.100882
   31 Atom    -14.771210
   32 Atom     -1.100569
   33 Atom    -14.764692
   34 Atom    -14.770168
   35 Atom    -14.771364
   36 Atom     -1.100270
   37 Atom     -1.101143
   38 Atom    -14.782474
   39 Atom    -14.776396
   40 Atom    -14.787705
   41 Atom     -1.127363
   42 Atom     -1.129816
   43 Atom     -1.126748
   44 Atom    -14.798858
   45 Atom     -1.141532
   46 Atom     -1.137194
   47 Atom     -1.135978
   48 Atom    -14.803036
   49 Atom     -1.143771
   50 Atom     -1.141835
   51 Atom     -1.141948
   52 Atom    -14.790196
   53 Atom     -1.128119
   54 Atom     -1.130693
   55 Atom     -1.128699
   56 Atom    -14.781375
   57 Atom     -1.121567
   58 Atom     -1.121540
   59 Atom     -1.122196
   60 Atom    -14.794459
   61 Atom     -1.136487
   62 Atom     -1.132444
   63 Atom     -1.133609
 -----------------------------------------------------------------
 Unable to Open any file for archive entry.
 1\1\GINC-IRENE5171\SP\RwB97XD\GenECP\C28H32B1N1O1\PENASFRA\10-Apr-2024
 \0\\# wb97xd/genecp scrf=(solvent=toluene,pcm) nosymm pop=(chelpg) scf
 cyc=300\\tbu_naphtoxanthene_chelpg\\0,1\C,0,-1.952802,1.402756,0.94200
 9\C,0,-0.606536,1.445984,1.369416\C,0,0.211012,2.528324,1.129849\C,0,-
 0.281415,3.650654,0.434285\C,0,-1.617179,3.624175,-0.014178\C,0,-2.413
 165,2.498584,0.248312\H,0,-0.195064,0.592835,1.898958\H,0,1.239952,2.5
 22474,1.473062\C,0,-2.158908,4.720146,-0.740779\O,0,-3.718978,2.445548
 ,-0.18815\C,0,-3.507689,4.626964,-1.195642\C,0,-4.258776,3.473028,-0.9
 14284\C,0,-4.063923,5.674767,-1.959172\C,0,-5.5629,3.328208,-1.376243\
 C,0,-5.380969,5.526841,-2.427757\C,0,-6.099219,4.389384,-2.137876\H,0,
 -5.832118,6.317147,-3.017699\H,0,-7.114045,4.30323,-2.505922\B,0,-2.93
 9923,0.191699,1.205112\N,0,-6.280103,2.143148,-1.110763\C,0,-6.61063,1
 .914678,0.288981\H,0,-7.390209,2.605502,0.647274\H,0,-6.973427,0.89054
 8,0.406467\H,0,-5.724438,2.030536,0.909523\C,0,-7.392896,1.844061,-1.9
 90056\H,0,-7.686002,0.803008,-1.834062\H,0,-8.279357,2.473844,-1.80649
 2\H,0,-7.090691,1.958469,-3.032442\C,0,-3.250361,6.824089,-2.223105\H,
 0,-3.678907,7.635964,-2.801487\C,0,-1.970831,6.907137,-1.770855\H,0,-1
 .372619,7.786829,-1.984796\C,0,-1.382952,5.841552,-1.017867\C,0,-0.032
 541,5.865158,-0.546189\C,0,0.495041,4.818747,0.145622\H,0,0.575621,6.7
 39115,-0.756305\H,0,1.523624,4.854758,0.489025\C,0,-3.106988,-0.898486
 ,0.039373\C,0,-3.598316,0.136729,2.666432\C,0,-2.714137,-2.297496,0.55
 9719\H,0,-3.355821,-2.638485,1.37475\H,0,-2.798791,-3.026932,-0.254518
 \H,0,-1.677634,-2.322796,0.913173\C,0,-4.565283,-0.935915,-0.467572\H,
 0,-4.888583,0.044453,-0.829567\H,0,-4.634348,-1.640944,-1.305357\H,0,-
 5.266321,-1.268651,0.29888\C,0,-2.209656,-0.584223,-1.171764\H,0,-2.47
 2531,0.375163,-1.625672\H,0,-1.1517,-0.542409,-0.896249\H,0,-2.327172,
 -1.359152,-1.938578\C,0,-4.924284,-0.626567,2.802053\H,0,-4.850599,-1.
 663689,2.469208\H,0,-5.23526,-0.642327,3.853553\H,0,-5.722986,-0.14539
 ,2.23195\C,0,-2.536522,-0.577518,3.544711\H,0,-1.584188,-0.040595,3.55
 8145\H,0,-2.89913,-0.615057,4.578623\H,0,-2.349261,-1.604831,3.222718\
 C,0,-3.803551,1.547376,3.253003\H,0,-2.866977,2.107435,3.301717\H,0,-4
 .508614,2.136602,2.659405\H,0,-4.20777,1.475484,4.269593\\Version=AS64
 L-G16RevC.02\HF=-1241.0401289\RMSD=7.515e-09\Dipole=-0.4143709,0.03277
 23,0.0416966\Quadrupole=10.0114951,-1.8383066,-8.1731885,-0.0723397,5.
 7170183,-6.295469\PG=C01 [X(C28H32B1N1O1)]\\@
 The archive entry for this job was punched.


 SIGN SEEN IN A RESTAURANT-
 WE RESERVE THE RIGHT TO SERVE REFUSE TO ANYONE.
 Job cpu time:       0 days  7 hours 11 minutes 47.1 seconds.
 Elapsed time:       0 days  0 hours  4 minutes 23.8 seconds.
 File lengths (MBytes):  RWF=    657 Int=      0 D2E=      0 Chk=     49 Scr=      1
 Normal termination of Gaussian 16 at Wed Apr 10 16:47:36 2024.
