 Entering Gaussian System, Link 0=/ccc/products/gaussian-16-C.02/system/default/g16/g16
 Input=tbu_xanthene_chelpg.gjf
 Output=tbu_xanthene_chelpg.log
 Initial command:
 /ccc/products/gaussian-16-C.02/system/default/g16/l1.exe "/ccc/scratch/cont003/gen7343/penasfra/flp/b-n_flp/tbu_xanthene/reac/Gau-523798.inp" -scrdir="/ccc/scratch/cont003/gen7343/penasfra/flp/b-n_flp/tbu_xanthene/reac/"
 Entering Link 1 = /ccc/products/gaussian-16-C.02/system/default/g16/l1.exe PID=    523847.
  
 Copyright (c) 1988-2021, Gaussian, Inc.  All Rights Reserved.
  
 This is part of the Gaussian(R) 16 program.  It is based on
 the Gaussian(R) 09 system (copyright 2009, Gaussian, Inc.),
 the Gaussian(R) 03 system (copyright 2003, Gaussian, Inc.),
 the Gaussian(R) 98 system (copyright 1998, Gaussian, Inc.),
 the Gaussian(R) 94 system (copyright 1995, Gaussian, Inc.),
 the Gaussian 92(TM) system (copyright 1992, Gaussian, Inc.),
 the Gaussian 90(TM) system (copyright 1990, Gaussian, Inc.),
 the Gaussian 88(TM) system (copyright 1988, Gaussian, Inc.),
 the Gaussian 86(TM) system (copyright 1986, Carnegie Mellon
 University), and the Gaussian 82(TM) system (copyright 1983,
 Carnegie Mellon University). Gaussian is a federally registered
 trademark of Gaussian, Inc.
  
 This software contains proprietary and confidential information,
 including trade secrets, belonging to Gaussian, Inc.
  
 This software is provided under written license and may be
 used, copied, transmitted, or stored only in accord with that
 written license.
  
 The following legend is applicable only to US Government
 contracts under FAR:
  
                    RESTRICTED RIGHTS LEGEND
  
 Use, reproduction and disclosure by the US Government is
 subject to restrictions as set forth in subparagraphs (a)
 and (c) of the Commercial Computer Software - Restricted
 Rights clause in FAR 52.227-19.
  
 Gaussian, Inc.
 340 Quinnipiac St., Bldg. 40, Wallingford CT 06492
  
  
 ---------------------------------------------------------------
 Warning -- This program may not be used in any manner that
 competes with the business of Gaussian, Inc. or will provide
 assistance to any competitor of Gaussian, Inc.  The licensee
 of this program is prohibited from giving any competitor of
 Gaussian, Inc. access to this program.  By using this program,
 the user acknowledges that Gaussian, Inc. is engaged in the
 business of creating and licensing software in the field of
 computational chemistry and represents and warrants to the
 licensee that it is not a competitor of Gaussian, Inc. and that
 it will not use this program in any manner prohibited above.
 ---------------------------------------------------------------
  

 Cite this work as:
 Gaussian 16, Revision C.02,
 M. J. Frisch, G. W. Trucks, H. B. Schlegel, G. E. Scuseria, 
 M. A. Robb, J. R. Cheeseman, G. Scalmani, V. Barone, 
 G. A. Petersson, H. Nakatsuji, X. Li, M. Caricato, A. V. Marenich, 
 J. Bloino, B. G. Janesko, R. Gomperts, B. Mennucci, H. P. Hratchian, 
 J. V. Ortiz, A. F. Izmaylov, J. L. Sonnenberg, D. Williams-Young, 
 F. Ding, F. Lipparini, F. Egidi, J. Goings, B. Peng, A. Petrone, 
 T. Henderson, D. Ranasinghe, V. G. Zakrzewski, J. Gao, N. Rega, 
 G. Zheng, W. Liang, M. Hada, M. Ehara, K. Toyota, R. Fukuda, 
 J. Hasegawa, M. Ishida, T. Nakajima, Y. Honda, O. Kitao, H. Nakai, 
 T. Vreven, K. Throssell, J. A. Montgomery, Jr., J. E. Peralta, 
 F. Ogliaro, M. J. Bearpark, J. J. Heyd, E. N. Brothers, K. N. Kudin, 
 V. N. Staroverov, T. A. Keith, R. Kobayashi, J. Normand, 
 K. Raghavachari, A. P. Rendell, J. C. Burant, S. S. Iyengar, 
 J. Tomasi, M. Cossi, J. M. Millam, M. Klene, C. Adamo, R. Cammi, 
 J. W. Ochterski, R. L. Martin, K. Morokuma, O. Farkas, 
 J. B. Foresman, and D. J. Fox, Gaussian, Inc., Wallingford CT, 2019.
 
 ******************************************
 Gaussian 16:  AS64L-G16RevC.02  7-Dec-2021
                10-Apr-2024 
 ******************************************
 %nprocshared=128
 Will use up to  128 processors via shared memory.
 %mem=30GB
 %chk=tbu_xanthene_chelpg.chk
 ----------------------------------------------------------------------
 # wb97xd/genecp scrf=(solvent=toluene,pcm) nosymm pop=(chelpg) scfcyc=
 300
 ----------------------------------------------------------------------
 1/38=1,172=1/1;
 2/12=2,15=1,17=6,18=5,40=1/2;
 3/5=7,11=2,16=1,17=8,25=1,30=1,70=2201,72=13,74=-58/1,2,3;
 4//1;
 5/5=2,7=300,38=5,53=13/2;
 6/7=2,8=2,9=2,10=2,15=8,20=3,28=1/1,2;
 99/5=1,9=1/99;
 -------------------
 tbu_xanthene_chelpg
 -------------------
 Symbolic Z-matrix:
 Charge =  0 Multiplicity = 1
 C                    -2.0249    1.17713   0.78998 
 C                    -0.65964   0.89677   0.84798 
 C                     0.28305   1.8553    0.48927 
 C                    -0.12181   3.12038   0.08348 
 C                    -1.4755    3.4488    0.0312 
 C                    -2.38218   2.45503   0.37642 
 H                    -0.32289  -0.08867   1.15321 
 H                     1.33976   1.61515   0.52623 
 H                     0.6267    3.85453  -0.18796 
 C                    -2.03022   4.82451  -0.31629 
 O                    -3.74119   2.69948   0.31715 
 C                    -1.02889   5.66543  -1.10967 
 H                    -1.43633   6.65726  -1.31579 
 H                    -0.1153    5.81836  -0.53148 
 H                    -0.76526   5.19147  -2.05853 
 C                    -2.36099   5.5598    1.00438 
 H                    -1.44925   5.70628   1.59045 
 H                    -2.80294   6.53704   0.79024 
 H                    -3.06846   4.98773   1.60923 
 C                    -3.33606   4.60512  -1.07778 
 C                    -4.16407   3.56906  -0.65813 
 C                    -3.76754   5.40692  -2.13455 
 C                    -5.43987   3.34579  -1.20625 
 C                    -5.0023    5.18461  -2.7225 
 H                    -3.14001   6.20854  -2.50184 
 C                    -5.8377    4.17744  -2.25385 
 H                    -5.32974   5.81064  -3.54478 
 H                    -6.80735   4.0357   -2.71357 
 B                    -3.18765   0.13492   1.06909 
 N                    -6.22906   2.28498  -0.72353 
 C                    -6.63774   2.38892   0.67116 
 H                    -7.46579   3.10408   0.80031 
 H                    -6.97055   1.40891   1.02552 
 H                    -5.80105   2.70641   1.28859 
 C                    -7.31388   1.84144  -1.57481 
 H                    -7.69643   0.89513  -1.18416 
 H                    -8.15608   2.55199  -1.61584 
 H                    -6.94973   1.66655  -2.58877 
 C                    -3.67178  -0.71993  -0.19539 
 C                    -3.5905   -0.06702   2.60824 
 C                    -2.86869  -2.03895  -0.05935 
 H                    -3.15741  -2.60482   0.83122 
 H                    -3.06124  -2.67202  -0.93349 
 H                    -1.78807  -1.86243  -0.018 
 C                    -5.17116  -1.0522   -0.26612 
 H                    -5.76354  -0.13492  -0.27078 
 H                    -5.3815   -1.58608  -1.20103 
 H                    -5.50812  -1.68638   0.55229 
 C                    -3.29174  -0.06088  -1.53438 
 H                    -2.22324   0.15755  -1.60032 
 H                    -3.55047  -0.72838  -2.36512 
 H                    -3.84009   0.87491  -1.67641 
 C                    -4.84291  -0.90452   2.8988 
 H                    -5.7394   -0.4607    2.45814 
 H                    -4.74956  -1.92733   2.52447 
 H                    -5.00281  -0.96801   3.982 
 C                    -2.38202  -0.77656   3.2705 
 H                    -1.47599  -0.16794   3.2263 
 H                    -2.60763  -0.95574   4.32827 
 H                    -2.16705  -1.74722   2.81248 
 C                    -3.76218   1.29879   3.30375 
 H                    -2.87794   1.93023   3.18697 
 H                    -4.62056   1.84591   2.90615 
 H                    -3.93121   1.14907   4.3768 
 
 Symmetry turned off by external request.
 Stoichiometry    C25H36BNO
 Framework group  C1[X(C25H36BNO)]
 Deg. of freedom   186
 Full point group                 C1      NOp   1
                          Input orientation:                          
 ---------------------------------------------------------------------
 Center     Atomic      Atomic             Coordinates (Angstroms)
 Number     Number       Type             X           Y           Z
 ---------------------------------------------------------------------
      1          6           0       -2.024902    1.177125    0.789976
      2          6           0       -0.659641    0.896766    0.847978
      3          6           0        0.283045    1.855302    0.489270
      4          6           0       -0.121810    3.120379    0.083476
      5          6           0       -1.475498    3.448795    0.031204
      6          6           0       -2.382175    2.455034    0.376421
      7          1           0       -0.322894   -0.088670    1.153214
      8          1           0        1.339762    1.615149    0.526228
      9          1           0        0.626698    3.854526   -0.187962
     10          6           0       -2.030215    4.824512   -0.316289
     11          8           0       -3.741187    2.699477    0.317152
     12          6           0       -1.028889    5.665428   -1.109674
     13          1           0       -1.436332    6.657258   -1.315793
     14          1           0       -0.115296    5.818356   -0.531482
     15          1           0       -0.765260    5.191468   -2.058533
     16          6           0       -2.360989    5.559797    1.004382
     17          1           0       -1.449248    5.706277    1.590452
     18          1           0       -2.802937    6.537043    0.790241
     19          1           0       -3.068462    4.987726    1.609225
     20          6           0       -3.336059    4.605116   -1.077784
     21          6           0       -4.164074    3.569063   -0.658131
     22          6           0       -3.767537    5.406920   -2.134553
     23          6           0       -5.439872    3.345790   -1.206248
     24          6           0       -5.002295    5.184605   -2.722496
     25          1           0       -3.140008    6.208541   -2.501841
     26          6           0       -5.837698    4.177440   -2.253850
     27          1           0       -5.329740    5.810638   -3.544781
     28          1           0       -6.807348    4.035703   -2.713571
     29          5           0       -3.187645    0.134917    1.069094
     30          7           0       -6.229064    2.284980   -0.723533
     31          6           0       -6.637740    2.388919    0.671155
     32          1           0       -7.465786    3.104080    0.800313
     33          1           0       -6.970545    1.408913    1.025518
     34          1           0       -5.801052    2.706410    1.288592
     35          6           0       -7.313884    1.841436   -1.574809
     36          1           0       -7.696430    0.895125   -1.184159
     37          1           0       -8.156078    2.551987   -1.615840
     38          1           0       -6.949730    1.666554   -2.588772
     39          6           0       -3.671777   -0.719927   -0.195387
     40          6           0       -3.590501   -0.067017    2.608239
     41          6           0       -2.868694   -2.038947   -0.059352
     42          1           0       -3.157411   -2.604819    0.831219
     43          1           0       -3.061240   -2.672016   -0.933494
     44          1           0       -1.788072   -1.862434   -0.017999
     45          6           0       -5.171157   -1.052199   -0.266124
     46          1           0       -5.763544   -0.134915   -0.270782
     47          1           0       -5.381498   -1.586076   -1.201029
     48          1           0       -5.508119   -1.686381    0.552287
     49          6           0       -3.291740   -0.060883   -1.534382
     50          1           0       -2.223237    0.157550   -1.600317
     51          1           0       -3.550469   -0.728382   -2.365117
     52          1           0       -3.840093    0.874911   -1.676412
     53          6           0       -4.842906   -0.904520    2.898799
     54          1           0       -5.739400   -0.460703    2.458136
     55          1           0       -4.749560   -1.927331    2.524468
     56          1           0       -5.002814   -0.968008    3.981999
     57          6           0       -2.382019   -0.776562    3.270501
     58          1           0       -1.475990   -0.167939    3.226303
     59          1           0       -2.607633   -0.955738    4.328265
     60          1           0       -2.167048   -1.747218    2.812482
     61          6           0       -3.762184    1.298788    3.303753
     62          1           0       -2.877940    1.930225    3.186970
     63          1           0       -4.620558    1.845908    2.906147
     64          1           0       -3.931208    1.149072    4.376798
 ---------------------------------------------------------------------
 Rotational constants (GHZ):           0.2437522           0.1772216           0.1304457
 General basis read from cards:  (5D, 7F)
 ======================================================================================================
                                       Pseudopotential Parameters
 ======================================================================================================
  Center     Atomic      Valence      Angular      Power
  Number     Number     Electrons     Momentum     of R      Exponent        Coefficient   SO-Coeffient
 ======================================================================================================
    1          6
                                   No pseudopotential on this center.
    2          6
                                   No pseudopotential on this center.
    3          6
                                   No pseudopotential on this center.
    4          6
                                   No pseudopotential on this center.
    5          6
                                   No pseudopotential on this center.
    6          6
                                   No pseudopotential on this center.
    7          1
                                   No pseudopotential on this center.
    8          1
                                   No pseudopotential on this center.
    9          1
                                   No pseudopotential on this center.
   10          6
                                   No pseudopotential on this center.
   11          8
                                   No pseudopotential on this center.
   12          6
                                   No pseudopotential on this center.
   13          1
                                   No pseudopotential on this center.
   14          1
                                   No pseudopotential on this center.
   15          1
                                   No pseudopotential on this center.
   16          6
                                   No pseudopotential on this center.
   17          1
                                   No pseudopotential on this center.
   18          1
                                   No pseudopotential on this center.
   19          1
                                   No pseudopotential on this center.
   20          6
                                   No pseudopotential on this center.
   21          6
                                   No pseudopotential on this center.
   22          6
                                   No pseudopotential on this center.
   23          6
                                   No pseudopotential on this center.
   24          6
                                   No pseudopotential on this center.
   25          1
                                   No pseudopotential on this center.
   26          6
                                   No pseudopotential on this center.
   27          1
                                   No pseudopotential on this center.
   28          1
                                   No pseudopotential on this center.
   29          5
                                   No pseudopotential on this center.
   30          7
                                   No pseudopotential on this center.
   31          6
                                   No pseudopotential on this center.
   32          1
                                   No pseudopotential on this center.
   33          1
                                   No pseudopotential on this center.
   34          1
                                   No pseudopotential on this center.
   35          6
                                   No pseudopotential on this center.
   36          1
                                   No pseudopotential on this center.
   37          1
                                   No pseudopotential on this center.
   38          1
                                   No pseudopotential on this center.
   39          6
                                   No pseudopotential on this center.
   40          6
                                   No pseudopotential on this center.
   41          6
                                   No pseudopotential on this center.
   42          1
                                   No pseudopotential on this center.
   43          1
                                   No pseudopotential on this center.
   44          1
                                   No pseudopotential on this center.
   45          6
                                   No pseudopotential on this center.
   46          1
                                   No pseudopotential on this center.
   47          1
                                   No pseudopotential on this center.
   48          1
                                   No pseudopotential on this center.
   49          6
                                   No pseudopotential on this center.
   50          1
                                   No pseudopotential on this center.
   51          1
                                   No pseudopotential on this center.
   52          1
                                   No pseudopotential on this center.
   53          6
                                   No pseudopotential on this center.
   54          1
                                   No pseudopotential on this center.
   55          1
                                   No pseudopotential on this center.
   56          1
                                   No pseudopotential on this center.
   57          6
                                   No pseudopotential on this center.
   58          1
                                   No pseudopotential on this center.
   59          1
                                   No pseudopotential on this center.
   60          1
                                   No pseudopotential on this center.
   61          6
                                   No pseudopotential on this center.
   62          1
                                   No pseudopotential on this center.
   63          1
                                   No pseudopotential on this center.
   64          1
                                   No pseudopotential on this center.
 ======================================================================================================
   868 basis functions,  1332 primitive gaussians,   896 cartesian basis functions
   103 alpha electrons      103 beta electrons
       nuclear repulsion energy      2884.0715701325 Hartrees.
 NAtoms=   64 NActive=   64 NUniq=   64 SFac= 1.00D+00 NAtFMM=   60 NAOKFM=T Big=T
 Integral buffers will be    131072 words long.
 Raffenetti 2 integral format.
 Two-electron integral symmetry is turned off.
 Nuclear repulsion after empirical dispersion term =     2883.9980050314 Hartrees.
 ------------------------------------------------------------------------------
 Polarizable Continuum Model (PCM)
 =================================
 Model                : PCM.
 Atomic radii         : UFF (Universal Force Field).
 Polarization charges : Total charges.
 Charge compensation  : None.
 Solution method      : On-the-fly selection.
 Cavity type          : Scaled VdW (van der Waals Surface) (Alpha=1.100).
 Cavity algorithm     : GePol (No added spheres)
                        Default sphere list used, NSphG=   64.
                        Lebedev-Laikov grids with approx.  5.0 points / Ang**2.
                        Smoothing algorithm: York/Karplus (Gamma=1.0000).
                        Polarization charges: spherical gaussians, with
                                              point-specific exponents (IZeta= 3).
                        Self-potential: point-specific (ISelfS= 7).
                        Self-field    : sphere-specific E.n sum rule (ISelfD= 2).
 Solvent              : Toluene, Eps=   2.374100 Eps(inf)=   2.238315
 ------------------------------------------------------------------------------
 One-electron integrals computed using PRISM.
   1 Symmetry operations used in ECPInt.
 ECPInt:  NShTT=   60726 NPrTT=  190648 LenC2=   54648 LenP2D=  118673.
 LDataN:  DoStor=T MaxTD1= 4 Len=   56
 Number of processors reduced to  52 by ecpmxn.
 NBasis=   868 RedAO= T EigKep=  1.13D-06  NBF=   868
 NBsUse=   859 1.00D-06 EigRej=  8.72D-07 NBFU=   859
 ExpMin= 3.15D-02 ExpMax= 8.59D+03 ExpMxC= 1.30D+03 IAcc=3 IRadAn=         5 AccDes= 0.00D+00
 Harris functional with IExCor= 4639 and IRadAn=       5 diagonalized for initial guess.
 HarFok:  IExCor= 4639 AccDes= 0.00D+00 IRadAn=         5 IDoV= 1 UseB2=F ITyADJ=14
 ICtDFT=  3500011 ScaDFX=  1.000000  1.000000  1.000000  1.000000
 FoFCou: FMM=F IPFlag=           0 FMFlag=      100000 FMFlg1=        2001
         NFxFlg=           0 DoJE=T BraDBF=F KetDBF=T FulRan=T
         wScrn=  0.000000 ICntrl=       500 IOpCl=  0 I1Cent=   200000004 NGrid=           0
         NMat0=    1 NMatS0=      1 NMatT0=    0 NMatD0=    1 NMtDS0=    0 NMtDT0=    0
 Symmetry not used in FoFCou.
 Requested convergence on RMS density matrix=1.00D-08 within 300 cycles.
 Requested convergence on MAX density matrix=1.00D-06.
 Requested convergence on             energy=1.00D-06.
 No special actions if energy rises.
 Inv3:  Mode=1 IEnd=    37743627.
 Iteration    1 A*A^-1 deviation from unit magnitude is 6.55D-15 for   3544.
 Iteration    1 A*A^-1 deviation from orthogonality  is 2.87D-15 for   2938    637.
 Iteration    1 A^-1*A deviation from unit magnitude is 6.55D-15 for   3544.
 Iteration    1 A^-1*A deviation from orthogonality  is 2.06D-15 for   2233   1926.
 Error on total polarization charges =  0.01286
 SCF Done:  E(RwB97XD) =  -1129.13091735     A.U. after   17 cycles
            NFock= 17  Conv=0.24D-08     -V/T= 2.0046

 **********************************************************************

            Population analysis using the SCF Density.

 **********************************************************************

 Alpha  occ. eigenvalues --  -19.29416 -14.44211 -10.34661 -10.34393 -10.32653
 Alpha  occ. eigenvalues --  -10.31651 -10.30489 -10.30260 -10.29789 -10.29592
 Alpha  occ. eigenvalues --  -10.28712 -10.28699 -10.28546 -10.28485 -10.28391
 Alpha  occ. eigenvalues --  -10.28353 -10.27569 -10.27449 -10.27432 -10.27216
 Alpha  occ. eigenvalues --  -10.27098 -10.27092 -10.26998 -10.26326 -10.26311
 Alpha  occ. eigenvalues --  -10.25685 -10.25378  -6.84861  -1.19637  -1.04756
 Alpha  occ. eigenvalues --   -0.97061  -0.96306  -0.92017  -0.90649  -0.89202
 Alpha  occ. eigenvalues --   -0.86723  -0.84877  -0.83695  -0.82411  -0.81214
 Alpha  occ. eigenvalues --   -0.79104  -0.78216  -0.77637  -0.77378  -0.76450
 Alpha  occ. eigenvalues --   -0.75625  -0.73464  -0.72875  -0.69357  -0.67148
 Alpha  occ. eigenvalues --   -0.66058  -0.64488  -0.64200  -0.63174  -0.60125
 Alpha  occ. eigenvalues --   -0.58287  -0.57664  -0.56692  -0.56284  -0.56060
 Alpha  occ. eigenvalues --   -0.55250  -0.54533  -0.53686  -0.53346  -0.53095
 Alpha  occ. eigenvalues --   -0.52665  -0.51939  -0.51302  -0.51073  -0.50810
 Alpha  occ. eigenvalues --   -0.49758  -0.49297  -0.48588  -0.48055  -0.47581
 Alpha  occ. eigenvalues --   -0.47460  -0.47255  -0.46802  -0.46379  -0.46157
 Alpha  occ. eigenvalues --   -0.45573  -0.45350  -0.45099  -0.44753  -0.44730
 Alpha  occ. eigenvalues --   -0.44156  -0.44092  -0.43814  -0.43492  -0.42402
 Alpha  occ. eigenvalues --   -0.41673  -0.41034  -0.40474  -0.40094  -0.39848
 Alpha  occ. eigenvalues --   -0.39344  -0.36026  -0.35728  -0.35318  -0.32579
 Alpha  occ. eigenvalues --   -0.31712  -0.30089  -0.27636
 Alpha virt. eigenvalues --    0.03719   0.04258   0.04443   0.04728   0.04796
 Alpha virt. eigenvalues --    0.05291   0.05582   0.05734   0.05828   0.06018
 Alpha virt. eigenvalues --    0.06315   0.06372   0.06624   0.07144   0.07268
 Alpha virt. eigenvalues --    0.07442   0.07790   0.07833   0.08229   0.08550
 Alpha virt. eigenvalues --    0.08591   0.09256   0.09392   0.10218   0.10355
 Alpha virt. eigenvalues --    0.10479   0.10702   0.11009   0.11386   0.11440
 Alpha virt. eigenvalues --    0.11575   0.12013   0.12408   0.12722   0.13353
 Alpha virt. eigenvalues --    0.13549   0.13818   0.14076   0.14206   0.14365
 Alpha virt. eigenvalues --    0.14770   0.14901   0.15077   0.15467   0.15705
 Alpha virt. eigenvalues --    0.15919   0.16313   0.16348   0.16615   0.16766
 Alpha virt. eigenvalues --    0.17302   0.17389   0.17655   0.17808   0.18033
 Alpha virt. eigenvalues --    0.18131   0.18368   0.18460   0.18708   0.18908
 Alpha virt. eigenvalues --    0.19260   0.19353   0.19485   0.19734   0.19794
 Alpha virt. eigenvalues --    0.19835   0.20088   0.20173   0.20240   0.20351
 Alpha virt. eigenvalues --    0.20705   0.20949   0.21191   0.21278   0.21451
 Alpha virt. eigenvalues --    0.21569   0.21687   0.21950   0.22293   0.22342
 Alpha virt. eigenvalues --    0.22495   0.22747   0.22940   0.23010   0.23285
 Alpha virt. eigenvalues --    0.23360   0.23640   0.23853   0.24052   0.24378
 Alpha virt. eigenvalues --    0.24546   0.24659   0.24748   0.25056   0.25154
 Alpha virt. eigenvalues --    0.25376   0.25703   0.25874   0.26054   0.26076
 Alpha virt. eigenvalues --    0.26476   0.26567   0.26898   0.27050   0.27296
 Alpha virt. eigenvalues --    0.27318   0.27585   0.27888   0.27995   0.28468
 Alpha virt. eigenvalues --    0.28549   0.28699   0.28960   0.29111   0.29372
 Alpha virt. eigenvalues --    0.29636   0.29826   0.30014   0.30242   0.30631
 Alpha virt. eigenvalues --    0.30751   0.30817   0.31214   0.31443   0.31672
 Alpha virt. eigenvalues --    0.31910   0.32208   0.32417   0.32497   0.32783
 Alpha virt. eigenvalues --    0.32994   0.33195   0.33277   0.33622   0.33752
 Alpha virt. eigenvalues --    0.34136   0.34305   0.34708   0.34836   0.35044
 Alpha virt. eigenvalues --    0.35278   0.35462   0.35770   0.35876   0.36049
 Alpha virt. eigenvalues --    0.36245   0.36681   0.36739   0.36981   0.37337
 Alpha virt. eigenvalues --    0.37399   0.37573   0.37710   0.38074   0.38270
 Alpha virt. eigenvalues --    0.38351   0.38627   0.38827   0.39361   0.39522
 Alpha virt. eigenvalues --    0.39713   0.39906   0.40204   0.40286   0.40556
 Alpha virt. eigenvalues --    0.40897   0.41095   0.41640   0.41814   0.42095
 Alpha virt. eigenvalues --    0.42642   0.42741   0.43054   0.43246   0.43303
 Alpha virt. eigenvalues --    0.43737   0.44060   0.44414   0.44715   0.44948
 Alpha virt. eigenvalues --    0.45261   0.45548   0.45964   0.46343   0.46523
 Alpha virt. eigenvalues --    0.46995   0.47122   0.47505   0.47744   0.47968
 Alpha virt. eigenvalues --    0.48779   0.49173   0.49360   0.50006   0.50227
 Alpha virt. eigenvalues --    0.50536   0.50650   0.52199   0.52558   0.52723
 Alpha virt. eigenvalues --    0.53428   0.54260   0.55430   0.55992   0.56867
 Alpha virt. eigenvalues --    0.57074   0.57300   0.58005   0.58342   0.58347
 Alpha virt. eigenvalues --    0.59678   0.59796   0.60695   0.60848   0.61333
 Alpha virt. eigenvalues --    0.61938   0.62699   0.63091   0.64024   0.64285
 Alpha virt. eigenvalues --    0.64503   0.64708   0.65653   0.65825   0.66201
 Alpha virt. eigenvalues --    0.66914   0.67124   0.67616   0.67911   0.68026
 Alpha virt. eigenvalues --    0.68287   0.68897   0.69281   0.69801   0.70077
 Alpha virt. eigenvalues --    0.70220   0.70512   0.70894   0.71286   0.71773
 Alpha virt. eigenvalues --    0.72060   0.72615   0.73168   0.73542   0.73726
 Alpha virt. eigenvalues --    0.74158   0.74235   0.75010   0.75389   0.75851
 Alpha virt. eigenvalues --    0.76007   0.76214   0.76780   0.76863   0.77307
 Alpha virt. eigenvalues --    0.77431   0.78033   0.78497   0.78758   0.79283
 Alpha virt. eigenvalues --    0.79448   0.79820   0.80116   0.80486   0.80505
 Alpha virt. eigenvalues --    0.80987   0.81381   0.81669   0.82105   0.82516
 Alpha virt. eigenvalues --    0.82870   0.83048   0.83363   0.83938   0.84475
 Alpha virt. eigenvalues --    0.84731   0.84928   0.85028   0.85242   0.85816
 Alpha virt. eigenvalues --    0.85993   0.86389   0.86592   0.86931   0.87737
 Alpha virt. eigenvalues --    0.87833   0.88239   0.88365   0.88669   0.89123
 Alpha virt. eigenvalues --    0.89482   0.89791   0.90122   0.90306   0.90564
 Alpha virt. eigenvalues --    0.90976   0.91398   0.91947   0.92402   0.92626
 Alpha virt. eigenvalues --    0.92946   0.93263   0.93591   0.93981   0.94501
 Alpha virt. eigenvalues --    0.94808   0.95202   0.95808   0.96407   0.97537
 Alpha virt. eigenvalues --    0.98179   0.98614   0.98944   0.99512   0.99875
 Alpha virt. eigenvalues --    1.00690   1.01263   1.01462   1.01701   1.02408
 Alpha virt. eigenvalues --    1.03403   1.03831   1.04057   1.04460   1.05072
 Alpha virt. eigenvalues --    1.05596   1.06284   1.06586   1.07670   1.08259
 Alpha virt. eigenvalues --    1.09589   1.11093   1.11752   1.11984   1.12704
 Alpha virt. eigenvalues --    1.12978   1.13074   1.14384   1.15250   1.16046
 Alpha virt. eigenvalues --    1.16426   1.17207   1.17561   1.17683   1.18505
 Alpha virt. eigenvalues --    1.19568   1.19709   1.20465   1.21003   1.21336
 Alpha virt. eigenvalues --    1.22168   1.22426   1.23389   1.23607   1.25179
 Alpha virt. eigenvalues --    1.25459   1.26800   1.27615   1.28473   1.29703
 Alpha virt. eigenvalues --    1.30548   1.31616   1.32749   1.33426   1.34530
 Alpha virt. eigenvalues --    1.35401   1.36620   1.37273   1.38048   1.39374
 Alpha virt. eigenvalues --    1.40689   1.41628   1.42050   1.42604   1.43157
 Alpha virt. eigenvalues --    1.43897   1.45228   1.46224   1.48167   1.50147
 Alpha virt. eigenvalues --    1.51387   1.52167   1.52608   1.52691   1.53960
 Alpha virt. eigenvalues --    1.54608   1.54934   1.55317   1.56118   1.56647
 Alpha virt. eigenvalues --    1.57225   1.58131   1.58387   1.59053   1.59377
 Alpha virt. eigenvalues --    1.60661   1.60791   1.61287   1.61956   1.62376
 Alpha virt. eigenvalues --    1.62667   1.63133   1.63781   1.64048   1.64194
 Alpha virt. eigenvalues --    1.64744   1.65304   1.65858   1.66210   1.66265
 Alpha virt. eigenvalues --    1.66707   1.67253   1.67393   1.68140   1.68410
 Alpha virt. eigenvalues --    1.68577   1.69405   1.69894   1.70258   1.70710
 Alpha virt. eigenvalues --    1.71008   1.71104   1.71860   1.72755   1.72941
 Alpha virt. eigenvalues --    1.73356   1.73617   1.74365   1.74549   1.74785
 Alpha virt. eigenvalues --    1.75215   1.75645   1.76288   1.77070   1.77516
 Alpha virt. eigenvalues --    1.77675   1.77885   1.78849   1.79261   1.79430
 Alpha virt. eigenvalues --    1.80275   1.80599   1.81559   1.81962   1.82537
 Alpha virt. eigenvalues --    1.82743   1.83389   1.83438   1.84030   1.84483
 Alpha virt. eigenvalues --    1.84777   1.85177   1.85369   1.86186   1.86427
 Alpha virt. eigenvalues --    1.87300   1.87495   1.87892   1.88320   1.88900
 Alpha virt. eigenvalues --    1.89182   1.89884   1.90570   1.90694   1.91905
 Alpha virt. eigenvalues --    1.92271   1.93364   1.93765   1.94523   1.94691
 Alpha virt. eigenvalues --    1.94890   1.95574   1.95712   1.96608   1.98059
 Alpha virt. eigenvalues --    1.98795   1.99624   1.99968   2.00479   2.00994
 Alpha virt. eigenvalues --    2.01882   2.02646   2.03333   2.03726   2.04652
 Alpha virt. eigenvalues --    2.05216   2.05300   2.06441   2.07200   2.07533
 Alpha virt. eigenvalues --    2.07974   2.08633   2.09220   2.10002   2.10845
 Alpha virt. eigenvalues --    2.11024   2.11482   2.12164   2.12929   2.13134
 Alpha virt. eigenvalues --    2.14221   2.14548   2.16596   2.17084   2.17704
 Alpha virt. eigenvalues --    2.18564   2.19014   2.19355   2.20418   2.21089
 Alpha virt. eigenvalues --    2.21939   2.22672   2.22922   2.23871   2.24783
 Alpha virt. eigenvalues --    2.25423   2.25600   2.26265   2.27488   2.27880
 Alpha virt. eigenvalues --    2.28324   2.29954   2.31114   2.32334   2.33493
 Alpha virt. eigenvalues --    2.34160   2.34576   2.35425   2.35899   2.36571
 Alpha virt. eigenvalues --    2.38019   2.38293   2.39483   2.40015   2.41073
 Alpha virt. eigenvalues --    2.42010   2.42397   2.44470   2.45416   2.46435
 Alpha virt. eigenvalues --    2.47355   2.47987   2.49576   2.49980   2.51593
 Alpha virt. eigenvalues --    2.52579   2.54834   2.55278   2.56123   2.56279
 Alpha virt. eigenvalues --    2.57035   2.57806   2.58346   2.58588   2.59017
 Alpha virt. eigenvalues --    2.59611   2.60146   2.60820   2.61638   2.62469
 Alpha virt. eigenvalues --    2.63019   2.63740   2.64159   2.64666   2.65046
 Alpha virt. eigenvalues --    2.65197   2.65767   2.66148   2.66316   2.66805
 Alpha virt. eigenvalues --    2.67348   2.67772   2.68465   2.68771   2.68884
 Alpha virt. eigenvalues --    2.69654   2.70392   2.70688   2.70845   2.71998
 Alpha virt. eigenvalues --    2.72787   2.73246   2.74139   2.74618   2.75789
 Alpha virt. eigenvalues --    2.76370   2.76923   2.77922   2.78946   2.79569
 Alpha virt. eigenvalues --    2.80392   2.80891   2.81450   2.81983   2.82726
 Alpha virt. eigenvalues --    2.83303   2.84278   2.84983   2.85078   2.85629
 Alpha virt. eigenvalues --    2.86746   2.87228   2.87689   2.88193   2.89351
 Alpha virt. eigenvalues --    2.90143   2.90360   2.90746   2.91814   2.92024
 Alpha virt. eigenvalues --    2.92368   2.92483   2.93377   2.93740   2.94442
 Alpha virt. eigenvalues --    2.95081   2.95642   2.95899   2.96059   2.97085
 Alpha virt. eigenvalues --    2.97584   2.98301   2.99366   2.99734   3.00861
 Alpha virt. eigenvalues --    3.00962   3.02357   3.03185   3.04180   3.04806
 Alpha virt. eigenvalues --    3.06720   3.07773   3.08342   3.08785   3.09257
 Alpha virt. eigenvalues --    3.10518   3.11632   3.13190   3.14047   3.16230
 Alpha virt. eigenvalues --    3.18379   3.18878   3.20455   3.21107   3.23131
 Alpha virt. eigenvalues --    3.24727   3.24798   3.26193   3.26356   3.27086
 Alpha virt. eigenvalues --    3.28144   3.29142   3.31346   3.31941   3.34548
 Alpha virt. eigenvalues --    3.36491   3.37764   3.38217   3.39516   3.40151
 Alpha virt. eigenvalues --    3.40458   3.42422   3.43338   3.46047   3.47413
 Alpha virt. eigenvalues --    3.49489   3.52927   3.54904   3.58166   3.58865
 Alpha virt. eigenvalues --    3.59575   3.62442   3.64247   3.65310   3.67929
 Alpha virt. eigenvalues --    3.69554   3.71639   3.72482   3.80381   3.83462
 Alpha virt. eigenvalues --    3.85190   3.87932   3.89010   3.89034   3.90155
 Alpha virt. eigenvalues --    3.90274   3.90636   3.91149   3.91664   3.92391
 Alpha virt. eigenvalues --    3.92922   3.93345   3.94370   3.94474   3.95309
 Alpha virt. eigenvalues --    3.95524   3.95944   3.96349   3.96797   3.97245
 Alpha virt. eigenvalues --    3.97511   3.98321   4.00361   4.07276   4.13642
 Alpha virt. eigenvalues --    4.16198   4.16712   4.17425   4.18931   4.27217
 Alpha virt. eigenvalues --    4.29574   4.36384   4.37653   4.38438   4.39102
 Alpha virt. eigenvalues --    4.40364   4.42688   4.43502   4.47569   4.53195
 Alpha virt. eigenvalues --    4.57014   4.96216   4.97747   5.00009   5.14679
 Alpha virt. eigenvalues --    5.35675   5.70443   6.05664  14.89576  23.74888
 Alpha virt. eigenvalues --   23.80379  23.97975  23.99030  24.00088  24.10010
 Alpha virt. eigenvalues --   24.10861  24.11869  24.12395  24.12769  24.12971
 Alpha virt. eigenvalues --   24.13534  24.14079  24.15254  24.16367  24.16382
 Alpha virt. eigenvalues --   24.18469  24.19502  24.20861  24.21855  24.24054
 Alpha virt. eigenvalues --   24.25380  24.27844  24.33971  24.34710  35.76351
 Alpha virt. eigenvalues --   50.17088
          Condensed to atoms (all electrons):
 Mulliken charges:
               1
     1  C    0.856034
     2  C   -0.399172
     3  C   -0.603661
     4  C   -0.144956
     5  C    0.238535
     6  C    0.025066
     7  H    0.218655
     8  H    0.239903
     9  H    0.175536
    10  C   -0.235457
    11  O    0.003160
    12  C   -0.403795
    13  H    0.168506
    14  H    0.169470
    15  H    0.206315
    16  C   -0.765935
    17  H    0.188531
    18  H    0.192971
    19  H    0.162041
    20  C    0.399187
    21  C    0.170765
    22  C   -0.260330
    23  C   -0.361714
    24  C   -0.677838
    25  H    0.167686
    26  C   -0.062641
    27  H    0.242319
    28  H    0.194349
    29  B   -1.073449
    30  N    0.358492
    31  C   -0.238425
    32  H    0.189622
    33  H    0.180515
    34  H    0.143469
    35  C   -0.348847
    36  H    0.175885
    37  H    0.164661
    38  H    0.180963
    39  C    0.164843
    40  C   -0.058125
    41  C   -0.496144
    42  H    0.209780
    43  H    0.191344
    44  H    0.210193
    45  C   -0.562370
    46  H   -0.007906
    47  H    0.170100
    48  H    0.140235
    49  C   -0.436001
    50  H    0.238280
    51  H    0.178490
    52  H    0.122523
    53  C   -0.440331
    54  H    0.159212
    55  H    0.176057
    56  H    0.168275
    57  C   -0.586651
    58  H    0.198508
    59  H    0.177558
    60  H    0.173588
    61  C   -0.478477
    62  H    0.218747
    63  H    0.132379
    64  H    0.199476
 Sum of Mulliken charges =  -0.00000
 Mulliken charges with hydrogens summed into heavy atoms:
               1
     1  C    0.856034
     2  C   -0.180518
     3  C   -0.363758
     4  C    0.030580
     5  C    0.238535
     6  C    0.025066
    10  C   -0.235457
    11  O    0.003160
    12  C    0.140497
    16  C   -0.222392
    20  C    0.399187
    21  C    0.170765
    22  C   -0.092644
    23  C   -0.361714
    24  C   -0.435520
    26  C    0.131708
    29  B   -1.073449
    30  N    0.358492
    31  C    0.275182
    35  C    0.172661
    39  C    0.164843
    40  C   -0.058125
    41  C    0.115173
    45  C   -0.259941
    49  C    0.103293
    53  C    0.063213
    57  C   -0.036997
    61  C    0.072125
 Electronic spatial extent (au):  <R**2>=          21589.2556
 Charge=             -0.0000 electrons
 Dipole moment (field-independent basis, Debye):
    X=             -0.4946    Y=              0.6782    Z=             -0.1448  Tot=              0.8518
 Quadrupole moment (field-independent basis, Debye-Ang):
   XX=           -158.5333   YY=           -164.7724   ZZ=           -175.0369
   XY=             -0.7352   XZ=              3.3632   YZ=             -4.4724
 Traceless Quadrupole moment (field-independent basis, Debye-Ang):
   XX=              7.5809   YY=              1.3418   ZZ=             -8.9227
   XY=             -0.7352   XZ=              3.3632   YZ=             -4.4724
 Octapole moment (field-independent basis, Debye-Ang**2):
  XXX=           1667.9151  YYY=          -1007.3358  ZZZ=            -72.2487  XYY=            607.0341
  XXY=           -329.1608  XXZ=            -57.5089  XZZ=            589.7066  YZZ=           -350.9441
  YYZ=            -51.6413  XYZ=             18.3570
 Hexadecapole moment (field-independent basis, Debye-Ang**3):
 XXXX=         -15665.8424 YYYY=          -9930.8798 ZZZZ=          -3126.3604 XXXY=           3233.9786
 XXXZ=            157.9052 YYYX=           3539.2525 YYYZ=            648.9852 ZZZX=           -106.0063
 ZZZY=            791.5905 XXYY=          -4575.1506 XXZZ=          -3214.8858 YYZZ=          -2159.0938
 XXYZ=            154.3795 YYXZ=             64.4759 ZZXY=           1091.1178
 N-N= 2.883998005031D+03 E-N=-8.389144358685D+03  KE= 1.123941571400D+03
 Breneman (CHELPG) radii used.
 Generate Potential Derived Charges using the Breneman model, NDens= 1.
 Grid spacing= 0.300 Box extension= 2.800
 NStep X,Y,Z=   52     51     47   Total possible points=      124644
 Number of Points to Fit=   27179

 **********************************************************************

            Electrostatic Properties Using The SCF Density.

 **********************************************************************

       Atomic Center    1 is at  -2.024902  1.177125  0.789976
       Atomic Center    2 is at  -0.659641  0.896766  0.847978
       Atomic Center    3 is at   0.283045  1.855302  0.489270
       Atomic Center    4 is at  -0.121810  3.120379  0.083476
       Atomic Center    5 is at  -1.475498  3.448795  0.031204
       Atomic Center    6 is at  -2.382175  2.455034  0.376421
       Atomic Center    7 is at  -0.322894 -0.088670  1.153214
       Atomic Center    8 is at   1.339762  1.615149  0.526228
       Atomic Center    9 is at   0.626698  3.854526 -0.187962
       Atomic Center   10 is at  -2.030215  4.824512 -0.316289
       Atomic Center   11 is at  -3.741187  2.699477  0.317152
       Atomic Center   12 is at  -1.028889  5.665428 -1.109674
       Atomic Center   13 is at  -1.436332  6.657258 -1.315793
       Atomic Center   14 is at  -0.115296  5.818356 -0.531482
       Atomic Center   15 is at  -0.765260  5.191468 -2.058533
       Atomic Center   16 is at  -2.360989  5.559797  1.004382
       Atomic Center   17 is at  -1.449248  5.706277  1.590452
       Atomic Center   18 is at  -2.802937  6.537043  0.790241
       Atomic Center   19 is at  -3.068462  4.987726  1.609225
       Atomic Center   20 is at  -3.336059  4.605116 -1.077784
       Atomic Center   21 is at  -4.164074  3.569063 -0.658131
       Atomic Center   22 is at  -3.767537  5.406920 -2.134553
       Atomic Center   23 is at  -5.439872  3.345790 -1.206248
       Atomic Center   24 is at  -5.002295  5.184605 -2.722496
       Atomic Center   25 is at  -3.140008  6.208541 -2.501841
       Atomic Center   26 is at  -5.837698  4.177440 -2.253850
       Atomic Center   27 is at  -5.329740  5.810638 -3.544781
       Atomic Center   28 is at  -6.807348  4.035703 -2.713571
       Atomic Center   29 is at  -3.187645  0.134917  1.069094
       Atomic Center   30 is at  -6.229064  2.284980 -0.723533
       Atomic Center   31 is at  -6.637740  2.388919  0.671155
       Atomic Center   32 is at  -7.465786  3.104080  0.800313
       Atomic Center   33 is at  -6.970545  1.408913  1.025518
       Atomic Center   34 is at  -5.801052  2.706410  1.288592
       Atomic Center   35 is at  -7.313884  1.841436 -1.574809
       Atomic Center   36 is at  -7.696430  0.895125 -1.184159
       Atomic Center   37 is at  -8.156078  2.551987 -1.615840
       Atomic Center   38 is at  -6.949730  1.666554 -2.588772
       Atomic Center   39 is at  -3.671777 -0.719927 -0.195387
       Atomic Center   40 is at  -3.590501 -0.067017  2.608239
       Atomic Center   41 is at  -2.868694 -2.038947 -0.059352
       Atomic Center   42 is at  -3.157411 -2.604819  0.831219
       Atomic Center   43 is at  -3.061240 -2.672016 -0.933494
       Atomic Center   44 is at  -1.788072 -1.862434 -0.017999
       Atomic Center   45 is at  -5.171157 -1.052199 -0.266124
       Atomic Center   46 is at  -5.763544 -0.134915 -0.270782
       Atomic Center   47 is at  -5.381498 -1.586076 -1.201029
       Atomic Center   48 is at  -5.508119 -1.686381  0.552287
       Atomic Center   49 is at  -3.291740 -0.060883 -1.534382
       Atomic Center   50 is at  -2.223237  0.157550 -1.600317
       Atomic Center   51 is at  -3.550469 -0.728382 -2.365117
       Atomic Center   52 is at  -3.840093  0.874911 -1.676412
       Atomic Center   53 is at  -4.842906 -0.904520  2.898799
       Atomic Center   54 is at  -5.739400 -0.460703  2.458136
       Atomic Center   55 is at  -4.749560 -1.927331  2.524468
       Atomic Center   56 is at  -5.002814 -0.968008  3.981999
       Atomic Center   57 is at  -2.382019 -0.776562  3.270501
       Atomic Center   58 is at  -1.475990 -0.167939  3.226303
       Atomic Center   59 is at  -2.607633 -0.955738  4.328265
       Atomic Center   60 is at  -2.167048 -1.747218  2.812482
       Atomic Center   61 is at  -3.762184  1.298788  3.303753
       Atomic Center   62 is at  -2.877940  1.930225  3.186970
       Atomic Center   63 is at  -4.620558  1.845908  2.906147
       Atomic Center   64 is at  -3.931208  1.149072  4.376798
   27179 points will be used for fitting atomic charges
 Fitting point charges to electrostatic potential
 Charges from ESP fit, RMS=   0.00310 RRMS=   0.35658:
 ESP charges:
               1
     1  C   -0.026385
     2  C   -0.094171
     3  C   -0.198103
     4  C   -0.111126
     5  C   -0.202080
     6  C    0.307077
     7  H    0.105732
     8  H    0.114977
     9  H    0.116683
    10  C    0.471201
    11  O   -0.384350
    12  C   -0.235753
    13  H    0.067991
    14  H    0.064417
    15  H    0.028191
    16  C   -0.348561
    17  H    0.076121
    18  H    0.063071
    19  H    0.093111
    20  C   -0.136599
    21  C    0.205464
    22  C   -0.172069
    23  C    0.145824
    24  C   -0.129333
    25  H    0.122773
    26  C   -0.225958
    27  H    0.112877
    28  H    0.131909
    29  B    0.256412
    30  N   -0.000814
    31  C   -0.322702
    32  H    0.068957
    33  H    0.142669
    34  H    0.134112
    35  C   -0.112346
    36  H    0.065276
    37  H    0.046855
    38  H    0.057903
    39  C    0.184925
    40  C    0.199783
    41  C   -0.164153
    42  H    0.036370
    43  H    0.032398
    44  H    0.018912
    45  C   -0.295531
    46  H    0.027442
    47  H    0.059892
    48  H    0.061425
    49  C   -0.042992
    50  H   -0.058192
    51  H    0.035470
    52  H   -0.077808
    53  C   -0.392073
    54  H    0.066429
    55  H    0.093149
    56  H    0.076687
    57  C   -0.087555
    58  H   -0.031396
    59  H    0.028552
    60  H    0.008170
    61  C   -0.020264
    62  H   -0.058551
    63  H   -0.013041
    64  H    0.012702
 Sum of ESP charges =  -0.00000
 ESP charges with hydrogens summed into heavy atoms:
               1
     1  C   -0.026385
     2  C    0.011561
     3  C   -0.083126
     4  C    0.005557
     5  C   -0.202080
     6  C    0.307077
    10  C    0.471201
    11  O   -0.384350
    12  C   -0.075155
    16  C   -0.116258
    20  C   -0.136599
    21  C    0.205464
    22  C   -0.049296
    23  C    0.145824
    24  C   -0.016455
    26  C   -0.094050
    29  B    0.256412
    30  N   -0.000814
    31  C    0.023036
    35  C    0.057687
    39  C    0.184925
    40  C    0.199783
    41  C   -0.076473
    45  C   -0.146773
    49  C   -0.143521
    53  C   -0.155807
    57  C   -0.082229
    61  C   -0.079155
 Charge=  -0.00000 Dipole=    -0.5643     0.6657    -0.1344 Tot=     0.8830
 -----------------------------------------------------------------

              Electrostatic Properties (Atomic Units)

 -----------------------------------------------------------------
    Center     Electric         -------- Electric Field --------
               Potential          X             Y             Z
 -----------------------------------------------------------------
    1 Atom    -14.795221
    2 Atom    -14.777417
    3 Atom    -14.781412
    4 Atom    -14.777694
    5 Atom    -14.769528
    6 Atom    -14.721141
    7 Atom     -1.110801
    8 Atom     -1.110885
    9 Atom     -1.106170
   10 Atom    -14.738116
   11 Atom    -22.322603
   12 Atom    -14.779978
   13 Atom     -1.115380
   14 Atom     -1.115192
   15 Atom     -1.119067
   16 Atom    -14.783611
   17 Atom     -1.122357
   18 Atom     -1.122494
   19 Atom     -1.124997
   20 Atom    -14.767420
   21 Atom    -14.717499
   22 Atom    -14.780583
   23 Atom    -14.736343
   24 Atom    -14.779653
   25 Atom     -1.107422
   26 Atom    -14.778991
   27 Atom     -1.109417
   28 Atom     -1.102951
   29 Atom    -11.467311
   30 Atom    -18.381039
   31 Atom    -14.752378
   32 Atom     -1.120657
   33 Atom     -1.114643
   34 Atom     -1.116557
   35 Atom    -14.748785
   36 Atom     -1.111171
   37 Atom     -1.115665
   38 Atom     -1.111548
   39 Atom    -14.784655
   40 Atom    -14.780267
   41 Atom    -14.785444
   42 Atom     -1.126003
   43 Atom     -1.126609
   44 Atom     -1.125296
   45 Atom    -14.801348
   46 Atom     -1.139927
   47 Atom     -1.139989
   48 Atom     -1.139090
   49 Atom    -14.807249
   50 Atom     -1.147507
   51 Atom     -1.145068
   52 Atom     -1.147399
   53 Atom    -14.794246
   54 Atom     -1.132920
   55 Atom     -1.131687
   56 Atom     -1.134786
   57 Atom    -14.787427
   58 Atom     -1.129743
   59 Atom     -1.127291
   60 Atom     -1.126128
   61 Atom    -14.795622
   62 Atom     -1.137559
   63 Atom     -1.134834
   64 Atom     -1.135008
 -----------------------------------------------------------------
 Unable to Open any file for archive entry.
 1\1\GINC-IRENE4762\SP\RwB97XD\GenECP\C25H36B1N1O1\PENASFRA\10-Apr-2024
 \0\\# wb97xd/genecp scrf=(solvent=toluene,pcm) nosymm pop=(chelpg) scf
 cyc=300\\tbu_xanthene_chelpg\\0,1\C,0,-2.024902,1.177125,0.789976\C,0,
 -0.659641,0.896766,0.847978\C,0,0.283045,1.855302,0.48927\C,0,-0.12181
 ,3.120379,0.083476\C,0,-1.475498,3.448795,0.031204\C,0,-2.382175,2.455
 034,0.376421\H,0,-0.322894,-0.08867,1.153214\H,0,1.339762,1.615149,0.5
 26228\H,0,0.626698,3.854526,-0.187962\C,0,-2.030215,4.824512,-0.316289
 \O,0,-3.741187,2.699477,0.317152\C,0,-1.028889,5.665428,-1.109674\H,0,
 -1.436332,6.657258,-1.315793\H,0,-0.115296,5.818356,-0.531482\H,0,-0.7
 6526,5.191468,-2.058533\C,0,-2.360989,5.559797,1.004382\H,0,-1.449248,
 5.706277,1.590452\H,0,-2.802937,6.537043,0.790241\H,0,-3.068462,4.9877
 26,1.609225\C,0,-3.336059,4.605116,-1.077784\C,0,-4.164074,3.569063,-0
 .658131\C,0,-3.767537,5.40692,-2.134553\C,0,-5.439872,3.34579,-1.20624
 8\C,0,-5.002295,5.184605,-2.722496\H,0,-3.140008,6.208541,-2.501841\C,
 0,-5.837698,4.17744,-2.25385\H,0,-5.32974,5.810638,-3.544781\H,0,-6.80
 7348,4.035703,-2.713571\B,0,-3.187645,0.134917,1.069094\N,0,-6.229064,
 2.28498,-0.723533\C,0,-6.63774,2.388919,0.671155\H,0,-7.465786,3.10408
 ,0.800313\H,0,-6.970545,1.408913,1.025518\H,0,-5.801052,2.70641,1.2885
 92\C,0,-7.313884,1.841436,-1.574809\H,0,-7.69643,0.895125,-1.184159\H,
 0,-8.156078,2.551987,-1.61584\H,0,-6.94973,1.666554,-2.588772\C,0,-3.6
 71777,-0.719927,-0.195387\C,0,-3.590501,-0.067017,2.608239\C,0,-2.8686
 94,-2.038947,-0.059352\H,0,-3.157411,-2.604819,0.831219\H,0,-3.06124,-
 2.672016,-0.933494\H,0,-1.788072,-1.862434,-0.017999\C,0,-5.171157,-1.
 052199,-0.266124\H,0,-5.763544,-0.134915,-0.270782\H,0,-5.381498,-1.58
 6076,-1.201029\H,0,-5.508119,-1.686381,0.552287\C,0,-3.29174,-0.060883
 ,-1.534382\H,0,-2.223237,0.15755,-1.600317\H,0,-3.550469,-0.728382,-2.
 365117\H,0,-3.840093,0.874911,-1.676412\C,0,-4.842906,-0.90452,2.89879
 9\H,0,-5.7394,-0.460703,2.458136\H,0,-4.74956,-1.927331,2.524468\H,0,-
 5.002814,-0.968008,3.981999\C,0,-2.382019,-0.776562,3.270501\H,0,-1.47
 599,-0.167939,3.226303\H,0,-2.607633,-0.955738,4.328265\H,0,-2.167048,
 -1.747218,2.812482\C,0,-3.762184,1.298788,3.303753\H,0,-2.87794,1.9302
 25,3.18697\H,0,-4.620558,1.845908,2.906147\H,0,-3.931208,1.149072,4.37
 6798\\Version=AS64L-G16RevC.02\HF=-1129.1309173\RMSD=2.436e-09\Dipole=
 -0.1946086,0.2668058,-0.0569662\Quadrupole=5.6362167,0.997581,-6.63379
 77,-0.546629,2.5004384,-3.3250873\PG=C01 [X(C25H36B1N1O1)]\\@
 The archive entry for this job was punched.


 Mondays are the potholes in the road of life.
                                -- Tom Wilson
 Job cpu time:       0 days  7 hours  5 minutes 11.8 seconds.
 Elapsed time:       0 days  0 hours  4 minutes 13.6 seconds.
 File lengths (MBytes):  RWF=    605 Int=      0 D2E=      0 Chk=     46 Scr=      1
 Normal termination of Gaussian 16 at Wed Apr 10 16:37:29 2024.
