 Entering Gaussian System, Link 0=/ccc/products/gaussian-16-C.02/system/default/g16/g16
 Input=4meborinane_metriazole_chelpg.gjf
 Output=4meborinane_metriazole_chelpg.log
 Initial command:
 /ccc/products/gaussian-16-C.02/system/default/g16/l1.exe "/ccc/scratch/cont003/gen7343/penasfra/flp/b-n_flp/4meborinane_metriazole/Reactant/Gau-2754039.inp" -scrdir="/ccc/scratch/cont003/gen7343/penasfra/flp/b-n_flp/4meborinane_metriazole/Reactant/"
 Entering Link 1 = /ccc/products/gaussian-16-C.02/system/default/g16/l1.exe PID=   2754088.
  
 Copyright (c) 1988-2021, Gaussian, Inc.  All Rights Reserved.
  
 This is part of the Gaussian(R) 16 program.  It is based on
 the Gaussian(R) 09 system (copyright 2009, Gaussian, Inc.),
 the Gaussian(R) 03 system (copyright 2003, Gaussian, Inc.),
 the Gaussian(R) 98 system (copyright 1998, Gaussian, Inc.),
 the Gaussian(R) 94 system (copyright 1995, Gaussian, Inc.),
 the Gaussian 92(TM) system (copyright 1992, Gaussian, Inc.),
 the Gaussian 90(TM) system (copyright 1990, Gaussian, Inc.),
 the Gaussian 88(TM) system (copyright 1988, Gaussian, Inc.),
 the Gaussian 86(TM) system (copyright 1986, Carnegie Mellon
 University), and the Gaussian 82(TM) system (copyright 1983,
 Carnegie Mellon University). Gaussian is a federally registered
 trademark of Gaussian, Inc.
  
 This software contains proprietary and confidential information,
 including trade secrets, belonging to Gaussian, Inc.
  
 This software is provided under written license and may be
 used, copied, transmitted, or stored only in accord with that
 written license.
  
 The following legend is applicable only to US Government
 contracts under FAR:
  
                    RESTRICTED RIGHTS LEGEND
  
 Use, reproduction and disclosure by the US Government is
 subject to restrictions as set forth in subparagraphs (a)
 and (c) of the Commercial Computer Software - Restricted
 Rights clause in FAR 52.227-19.
  
 Gaussian, Inc.
 340 Quinnipiac St., Bldg. 40, Wallingford CT 06492
  
  
 ---------------------------------------------------------------
 Warning -- This program may not be used in any manner that
 competes with the business of Gaussian, Inc. or will provide
 assistance to any competitor of Gaussian, Inc.  The licensee
 of this program is prohibited from giving any competitor of
 Gaussian, Inc. access to this program.  By using this program,
 the user acknowledges that Gaussian, Inc. is engaged in the
 business of creating and licensing software in the field of
 computational chemistry and represents and warrants to the
 licensee that it is not a competitor of Gaussian, Inc. and that
 it will not use this program in any manner prohibited above.
 ---------------------------------------------------------------
  

 Cite this work as:
 Gaussian 16, Revision C.02,
 M. J. Frisch, G. W. Trucks, H. B. Schlegel, G. E. Scuseria, 
 M. A. Robb, J. R. Cheeseman, G. Scalmani, V. Barone, 
 G. A. Petersson, H. Nakatsuji, X. Li, M. Caricato, A. V. Marenich, 
 J. Bloino, B. G. Janesko, R. Gomperts, B. Mennucci, H. P. Hratchian, 
 J. V. Ortiz, A. F. Izmaylov, J. L. Sonnenberg, D. Williams-Young, 
 F. Ding, F. Lipparini, F. Egidi, J. Goings, B. Peng, A. Petrone, 
 T. Henderson, D. Ranasinghe, V. G. Zakrzewski, J. Gao, N. Rega, 
 G. Zheng, W. Liang, M. Hada, M. Ehara, K. Toyota, R. Fukuda, 
 J. Hasegawa, M. Ishida, T. Nakajima, Y. Honda, O. Kitao, H. Nakai, 
 T. Vreven, K. Throssell, J. A. Montgomery, Jr., J. E. Peralta, 
 F. Ogliaro, M. J. Bearpark, J. J. Heyd, E. N. Brothers, K. N. Kudin, 
 V. N. Staroverov, T. A. Keith, R. Kobayashi, J. Normand, 
 K. Raghavachari, A. P. Rendell, J. C. Burant, S. S. Iyengar, 
 J. Tomasi, M. Cossi, J. M. Millam, M. Klene, C. Adamo, R. Cammi, 
 J. W. Ochterski, R. L. Martin, K. Morokuma, O. Farkas, 
 J. B. Foresman, and D. J. Fox, Gaussian, Inc., Wallingford CT, 2019.
 
 ******************************************
 Gaussian 16:  AS64L-G16RevC.02  7-Dec-2021
                 9-Apr-2024 
 ******************************************
 %nprocshared=128
 Will use up to  128 processors via shared memory.
 %mem=30GB
 %chk=4meborinane_metriazole_chelpg.chk
 ----------------------------------------------------------------------
 # wb97xd/genecp scrf=(solvent=toluene,pcm) nosymm pop=(chelpg) scfcyc=
 300
 ----------------------------------------------------------------------
 1/38=1,172=1/1;
 2/12=2,15=1,17=6,18=5,40=1/2;
 3/5=7,11=2,16=1,17=8,25=1,30=1,70=2201,72=13,74=-58/1,2,3;
 4//1;
 5/5=2,7=300,38=5,53=13/2;
 6/7=2,8=2,9=2,10=2,15=8,20=3,28=1/1,2;
 99/5=1,9=1/99;
 -----------------------------
 4meborinane_metriazole_chelpg
 -----------------------------
 Symbolic Z-matrix:
 Charge =  0 Multiplicity = 1
 C                     2.01391   0.40329  -0.14428 
 H                     1.13874   0.8014    0.33962 
 C                     3.2317   -0.03822   0.33908 
 N                     2.05739   0.21168  -1.4739 
 N                     3.24185  -0.30387  -1.83275 
 N                     3.9394   -0.46958  -0.76094 
 C                     1.03614   0.47837  -2.4684 
 H                     0.7511    1.53024  -2.43987 
 H                     1.45917   0.2413   -3.44227 
 H                     0.16221  -0.14817  -2.28724 
 C                     4.73348  -1.36867   2.18258 
 C                     3.53698   1.04657   2.8401 
 C                     4.806    -1.58717   3.70893 
 C                     3.74403   0.60634   4.3039 
 C                     4.94707  -0.30563   4.52317 
 H                     5.63312  -2.27477   3.92935 
 H                     3.89013  -2.09844   4.03601 
 H                     3.82164   1.501     4.93605 
 H                     2.84445   0.07264   4.63965 
 H                     5.02944  -0.55167   5.58664 
 H                     5.87501   0.21479   4.26026 
 B                     3.79352  -0.13589   1.8005 
 C                     4.60651   2.10751   2.46503 
 H                     4.49806   2.438     1.42773 
 H                     4.48353   2.9841    3.11234 
 H                     5.62872   1.74492   2.59266 
 C                     2.16461   1.73036   2.73985 
 H                     1.34113   1.01781   2.85718 
 H                     2.06558   2.47754   3.53631 
 H                     2.03804   2.25647   1.7907 
 C                     4.25528  -2.68316   1.53849 
 H                     3.22057  -2.91366   1.81547 
 H                     4.31417  -2.64342   0.4498 
 H                     4.88119  -3.51509   1.88464 
 C                     6.15062  -1.06023   1.63828 
 H                     6.80251  -1.92123   1.83101 
 H                     6.13209  -0.88246   0.56099 
 H                     6.60559  -0.19115   2.1205 
 
                          Input orientation:                          
 ---------------------------------------------------------------------
 Center     Atomic      Atomic             Coordinates (Angstroms)
 Number     Number       Type             X           Y           Z
 ---------------------------------------------------------------------
      1          6           0        2.013907    0.403287   -0.144278
      2          1           0        1.138739    0.801404    0.339616
      3          6           0        3.231702   -0.038223    0.339083
      4          7           0        2.057389    0.211682   -1.473900
      5          7           0        3.241846   -0.303873   -1.832753
      6          7           0        3.939401   -0.469575   -0.760937
      7          6           0        1.036135    0.478367   -2.468401
      8          1           0        0.751102    1.530243   -2.439870
      9          1           0        1.459165    0.241302   -3.442270
     10          1           0        0.162206   -0.148166   -2.287244
     11          6           0        4.733478   -1.368666    2.182580
     12          6           0        3.536981    1.046573    2.840096
     13          6           0        4.805999   -1.587169    3.708933
     14          6           0        3.744029    0.606343    4.303902
     15          6           0        4.947065   -0.305626    4.523173
     16          1           0        5.633121   -2.274768    3.929353
     17          1           0        3.890130   -2.098445    4.036008
     18          1           0        3.821635    1.501001    4.936045
     19          1           0        2.844452    0.072637    4.639650
     20          1           0        5.029437   -0.551669    5.586644
     21          1           0        5.875007    0.214793    4.260258
     22          5           0        3.793517   -0.135894    1.800496
     23          6           0        4.606513    2.107514    2.465031
     24          1           0        4.498056    2.438003    1.427727
     25          1           0        4.483527    2.984098    3.112336
     26          1           0        5.628721    1.744924    2.592660
     27          6           0        2.164612    1.730356    2.739845
     28          1           0        1.341126    1.017815    2.857176
     29          1           0        2.065581    2.477541    3.536313
     30          1           0        2.038036    2.256469    1.790701
     31          6           0        4.255281   -2.683164    1.538488
     32          1           0        3.220574   -2.913656    1.815469
     33          1           0        4.314165   -2.643418    0.449802
     34          1           0        4.881192   -3.515085    1.884636
     35          6           0        6.150619   -1.060234    1.638276
     36          1           0        6.802514   -1.921228    1.831006
     37          1           0        6.132089   -0.882458    0.560994
     38          1           0        6.605591   -0.191148    2.120495
 ---------------------------------------------------------------------
                    Distance matrix (angstroms):
                    1          2          3          4          5
     1  C    0.000000
     2  H    1.076369   0.000000
     3  C    1.382604   2.255098   0.000000
     4  N    1.344060   2.116726   2.174482   0.000000
     5  N    2.204282   3.219299   2.188046   1.340713   0.000000
     6  N    2.202200   3.266544   1.377297   2.124711   1.289508
     7  C    2.522543   2.828399   3.601298   1.450211   2.425100
     8  H    2.852096   2.899485   4.041787   2.092388   3.152202
     9  H    3.348243   3.836541   4.185529   2.057481   2.462867
    10  H    2.885342   2.959002   4.041223   2.093499   3.116888
    11  C    3.993764   4.585615   2.724682   4.798833   4.413802
    12  C    3.411753   3.473337   2.743181   4.636464   4.873020
    13  C    5.157996   5.523258   4.029086   6.136162   5.899467
    14  C    4.777118   4.747752   4.049412   6.031874   6.224084
    15  C    5.557974   5.764635   4.529965   6.677029   6.580697
    16  H    6.071668   6.522922   4.864050   6.939988   6.542514
    17  H    5.220504   5.444501   4.283141   6.249377   6.171152
    18  H    5.502957   5.367916   4.883574   6.772171   7.029250
    19  H    4.866734   4.683039   4.319390   6.165573   6.495512
    20  H    6.545902   6.670805   5.570671   7.698510   7.635728
    21  H    5.860338   6.176389   4.735683   6.888743   6.657878
    22  B    2.690701   3.171836   1.568727   3.722448   3.678730
    23  C    4.053947   4.271858   3.318727   5.060374   5.113516
    24  H    3.575229   3.891973   2.986720   4.396908   4.441472
    25  H    4.833750   4.862071   4.288639   5.882686   6.066830
    26  H    4.728393   5.111397   3.742182   5.625136   5.429459
    27  C    3.178363   2.770644   3.167051   4.480348   5.119294
    28  H    3.136719   2.534936   3.321187   4.463306   5.230204
    29  H    4.225157   3.726573   4.232161   5.498765   6.160092
    30  H    2.679367   2.243122   2.966082   3.852161   4.597165
    31  C    4.169129   4.826214   3.079286   4.720736   4.248922
    32  H    4.037173   4.507089   3.232330   4.684089   4.485637
    33  H    3.863487   4.686392   2.823301   4.116462   3.439970
    34  H    5.262267   5.918202   4.147062   5.756945   5.178641
    35  C    4.736220   5.501923   3.354472   5.296975   4.591414
    36  H    5.677664   6.458740   4.303747   6.163434   5.358855
    37  H    4.371495   5.274272   3.028898   4.684135   3.797142
    38  H    5.154232   5.834652   3.818369   5.811032   5.191884
                    6          7          8          9         10
     6  N    0.000000
     7  C    3.498997   0.000000
     8  H    4.121085   1.090184   0.000000
     9  H    3.721084   1.087922   1.779755   0.000000
    10  H    4.086578   1.090465   1.785259   1.779852   0.000000
    11  C    3.178556   6.222017   6.755001   6.704630   6.508877
    12  C    3.927860   5.895526   5.989416   6.665876   6.253489
    13  C    4.688256   7.525807   7.998014   8.104586   7.719435
    14  C    5.181541   7.294735   7.435702   8.084370   7.539360
    15  C    5.381829   8.049356   8.334296   8.712799   8.324749
    16  H    5.303417   8.345255   8.881397   8.837044   8.549820
    17  H    5.066194   7.555963   8.059644   8.204185   7.595033
    18  H    6.029315   7.976880   7.989565   8.795696   8.263599
    19  H    5.537079   7.345680   7.525047   8.201518   7.431356
    20  H    6.441017   9.049375   9.330779   9.741506   9.265574
    21  H    5.424696   8.292105   8.536775   8.878587   8.696989
    22  B    2.587192   5.118980   5.478413   5.751354   5.467741
    23  C    4.182499   6.304004   6.265420   6.948723   6.886514
    24  H    3.681896   5.568203   5.460952   6.146318   6.268084
    25  H    5.217871   7.021953   6.846290   7.722212   7.592125
    26  H    4.359406   6.950565   7.011677   7.487754   7.568358
    27  C    4.499450   5.474191   5.372849   6.397928   5.728010
    28  H    4.696180   5.361510   5.354382   6.348222   5.405037
    29  H    5.537423   6.411946   6.191930   7.353171   6.665657
    30  H    4.190151   4.722860   4.481220   5.637373   5.092214
    31  C    3.207353   6.034347   6.771957   6.417064   6.149447
    32  H    3.623274   5.884653   6.629814   6.379666   5.816683
    33  H    2.516333   5.385808   6.202021   5.623243   5.563854
    34  H    4.142603   7.048479   7.823959   7.361837   7.142097
    35  C    3.315809   6.737213   7.245456   7.036738   7.218218
    36  H    4.125879   7.582485   8.171452   7.812513   8.012329
    37  H    2.593425   6.082584   6.616746   6.255012   6.655159
    38  H    3.935574   7.247417   7.618081   7.590591   7.806870
                   11         12         13         14         15
    11  C    0.000000
    12  C    2.774403   0.000000
    13  C    1.543618   3.049899   0.000000
    14  C    3.062626   1.542530   2.508638   0.000000
    15  C    2.579544   2.578668   1.524873   1.525471   0.000000
    16  H    2.163699   4.075732   1.097956   3.465510   2.168136
    17  H    2.163102   3.383202   1.098725   2.721946   2.137438
    18  H    4.080198   2.163454   3.465771   1.098199   2.168169
    19  H    3.418035   2.160218   2.732921   1.098548   2.139540
    20  H    3.513222   3.510745   2.155918   2.153762   1.094666
    21  H    2.850820   2.859210   2.166519   2.167091   1.095918
    22  B    1.596634   1.595245   2.602585   2.611591   2.961833
    23  C    3.489946   1.552472   3.903559   2.525636   3.189854
    24  H    3.887924   2.203300   4.636889   3.492265   4.160636
    25  H    4.457968   2.173492   4.621298   2.760508   3.609378
    26  H    3.265589   2.219075   3.609125   2.788688   2.897635
    27  C    4.063687   1.536557   4.349946   2.490831   3.881691
    28  H    4.202193   2.196110   4.417780   2.834831   4.186865
    29  H    4.872738   2.167350   4.905258   2.628262   4.125877
    30  H    4.534378   2.193608   5.110263   3.456806   4.742698
    31  C    1.539945   4.015106   2.493056   4.327788   3.878092
    32  H    2.193318   4.102851   2.803274   4.342430   4.136938
    33  H    2.191651   4.464701   3.461141   5.073469   4.739007
    34  H    2.172028   4.850622   2.655292   4.912449   4.155339
    35  C    1.549092   3.565685   2.524536   3.959131   3.215681
    36  H    2.170216   4.526567   2.761209   4.675271   3.647002
    37  H    2.195917   3.956015   3.487786   4.682811   4.175629
    38  H    2.212512   3.386170   2.776786   3.686705   2.921759
                   16         17         18         19         20
    16  H    0.000000
    17  H    1.755130   0.000000
    18  H    4.307127   3.710899   0.000000
    19  H    3.713692   2.484235   1.755836   0.000000
    20  H    2.465790   2.468807   2.468910   2.461852   0.000000
    21  H    2.523078   3.056320   2.515424   3.057517   1.749786
    22  B    3.534255   2.976316   3.537214   3.000834   4.004408
    23  C    4.733134   4.546566   2.662668   3.460426   4.122449
    24  H    5.454972   5.268023   3.693753   4.318080   5.149475
    25  H    5.444700   5.199763   2.442047   3.673671   4.349927
    26  H    4.236117   4.458412   2.969261   3.839123   3.820657
    27  C    5.430148   4.395130   2.760729   2.611412   4.638871
    28  H    5.514697   4.195014   3.272322   2.516061   4.849424
    29  H    5.955356   4.951598   2.448797   2.758180   4.707910
    30  H    6.166894   5.238027   3.693934   3.679122   5.589571
    31  C    2.789528   2.590914   5.407280   4.382018   4.640060
    32  H    3.270637   2.458387   5.439528   4.127398   4.803408
    33  H    3.739361   3.652078   6.127411   5.204982   5.592332
    34  H    2.506921   2.759977   5.966144   4.960863   4.744331
    35  C    2.644226   3.454969   4.781148   4.606776   4.135855
    36  H    2.428071   3.657242   5.498960   5.246926   4.373135
    37  H    3.678769   4.310537   5.491825   5.325054   5.155814
    38  H    2.925600   3.831540   4.305938   4.534522   3.824713
                   21         22         23         24         25
    21  H    0.000000
    22  B    3.241298   0.000000
    23  C    2.900743   2.476984   0.000000
    24  H    3.855112   2.694490   1.094068   0.000000
    25  H    3.304995   3.454184   1.096599   1.770971   0.000000
    26  H    2.276585   2.744626   1.092094   1.765172   1.765527
    27  C    4.286679   2.649264   2.486092   2.769003   2.662327
    28  H    4.813477   2.908924   3.464675   3.745192   3.715651
    29  H    4.489527   3.581741   2.782247   3.219415   2.506555
    30  H    4.998950   2.967357   2.659696   2.493272   2.873428
    31  C    4.292983   2.602010   4.892079   5.128115   5.886166
    32  H    4.776003   2.836274   5.249277   5.515665   6.169312
    33  H    5.012502   2.895363   5.168943   5.177933   6.227897
    34  H    4.532465   3.550922   5.659145   5.982877   6.626067
    35  C    2.928557   2.537055   3.619726   3.874656   4.616131
    36  H    3.365133   3.498916   4.631973   4.947328   5.575099
    37  H    3.867118   2.750026   3.859102   3.800888   4.917048
    38  H    2.297200   2.830762   3.065757   3.440068   3.945769
                   26         27         28         29         30
    26  H    0.000000
    27  C    3.467265   0.000000
    28  H    4.356848   1.095267   0.000000
    29  H    3.758081   1.096565   1.765464   0.000000
    30  H    3.714544   1.092562   1.776884   1.759771   0.000000
    31  C    4.754533   5.029246   4.891675   5.951384   5.420310
    32  H    5.301468   4.851430   4.480395   5.775839   5.303697
    33  H    5.057415   5.384680   5.295190   6.388028   5.566657
    34  H    5.359831   5.968739   5.833102   6.824021   6.434531
    35  C    3.008677   4.988898   5.379147   5.727646   5.285555
    36  H    3.924102   5.972453   6.286315   6.685490   6.336799
    37  H    3.359194   5.226381   5.642412   6.056286   5.303425
    38  H    2.219367   4.878326   5.451503   5.453268   5.192509
                   31         32         33         34         35
    31  C    0.000000
    32  H    1.095657   0.000000
    33  H    1.091002   1.770315   0.000000
    34  H    1.097121   1.767527   1.772025   0.000000
    35  C    2.497232   3.471561   2.700279   2.774605   0.000000
    36  H    2.674791   3.716914   2.936182   2.496945   1.097006
    37  H    2.778569   3.765155   2.533415   3.201171   1.092009
    38  H    3.474598   4.354702   3.749063   3.752031   1.093090
                   36         37         38
    36  H    0.000000
    37  H    1.772412   0.000000
    38  H    1.765151   1.770355   0.000000
 Symmetry turned off by external request.
 Stoichiometry    C12H22BN3
 Framework group  C1[X(C12H22BN3)]
 Deg. of freedom   108
 Full point group                 C1      NOp   1
 Rotational constants (GHZ):           0.8727285           0.3765756           0.3057620
 General basis read from cards:  (5D, 7F)
 ======================================================================================================
                                       Pseudopotential Parameters
 ======================================================================================================
  Center     Atomic      Valence      Angular      Power
  Number     Number     Electrons     Momentum     of R      Exponent        Coefficient   SO-Coeffient
 ======================================================================================================
    1          6
                                   No pseudopotential on this center.
    2          1
                                   No pseudopotential on this center.
    3          6
                                   No pseudopotential on this center.
    4          7
                                   No pseudopotential on this center.
    5          7
                                   No pseudopotential on this center.
    6          7
                                   No pseudopotential on this center.
    7          6
                                   No pseudopotential on this center.
    8          1
                                   No pseudopotential on this center.
    9          1
                                   No pseudopotential on this center.
   10          1
                                   No pseudopotential on this center.
   11          6
                                   No pseudopotential on this center.
   12          6
                                   No pseudopotential on this center.
   13          6
                                   No pseudopotential on this center.
   14          6
                                   No pseudopotential on this center.
   15          6
                                   No pseudopotential on this center.
   16          1
                                   No pseudopotential on this center.
   17          1
                                   No pseudopotential on this center.
   18          1
                                   No pseudopotential on this center.
   19          1
                                   No pseudopotential on this center.
   20          1
                                   No pseudopotential on this center.
   21          1
                                   No pseudopotential on this center.
   22          5
                                   No pseudopotential on this center.
   23          6
                                   No pseudopotential on this center.
   24          1
                                   No pseudopotential on this center.
   25          1
                                   No pseudopotential on this center.
   26          1
                                   No pseudopotential on this center.
   27          6
                                   No pseudopotential on this center.
   28          1
                                   No pseudopotential on this center.
   29          1
                                   No pseudopotential on this center.
   30          1
                                   No pseudopotential on this center.
   31          6
                                   No pseudopotential on this center.
   32          1
                                   No pseudopotential on this center.
   33          1
                                   No pseudopotential on this center.
   34          1
                                   No pseudopotential on this center.
   35          6
                                   No pseudopotential on this center.
   36          1
                                   No pseudopotential on this center.
   37          1
                                   No pseudopotential on this center.
   38          1
                                   No pseudopotential on this center.
 ======================================================================================================
   506 basis functions,   774 primitive gaussians,   522 cartesian basis functions
    60 alpha electrons       60 beta electrons
       nuclear repulsion energy      1157.7952893863 Hartrees.
 NAtoms=   38 NActive=   38 NUniq=   38 SFac= 1.00D+00 NAtFMM=   60 NAOKFM=F Big=F
 Integral buffers will be    131072 words long.
 Raffenetti 2 integral format.
 Two-electron integral symmetry is turned off.
 Nuclear repulsion after empirical dispersion term =     1157.7592080157 Hartrees.
 ------------------------------------------------------------------------------
 Polarizable Continuum Model (PCM)
 =================================
 Model                : PCM.
 Atomic radii         : UFF (Universal Force Field).
 Polarization charges : Total charges.
 Charge compensation  : None.
 Solution method      : On-the-fly selection.
 Cavity type          : Scaled VdW (van der Waals Surface) (Alpha=1.100).
 Cavity algorithm     : GePol (No added spheres)
                        Default sphere list used, NSphG=   38.
                        Lebedev-Laikov grids with approx.  5.0 points / Ang**2.
                        Smoothing algorithm: York/Karplus (Gamma=1.0000).
                        Polarization charges: spherical gaussians, with
                                              point-specific exponents (IZeta= 3).
                        Self-potential: point-specific (ISelfS= 7).
                        Self-field    : sphere-specific E.n sum rule (ISelfD= 2).
 Solvent              : Toluene, Eps=   2.374100 Eps(inf)=   2.238315
 ------------------------------------------------------------------------------
 One-electron integrals computed using PRISM.
   1 Symmetry operations used in ECPInt.
 ECPInt:  NShTT=   21321 NPrTT=   66057 LenC2=   20151 LenP2D=   45935.
 LDataN:  DoStor=T MaxTD1= 4 Len=   56
 Number of processors reduced to  85 by ecpmxn.
 NBasis=   506 RedAO= T EigKep=  1.82D-06  NBF=   506
 NBsUse=   506 1.00D-06 EigRej= -1.00D+00 NBFU=   506
 ExpMin= 3.15D-02 ExpMax= 6.29D+03 ExpMxC= 9.49D+02 IAcc=3 IRadAn=         5 AccDes= 0.00D+00
 Harris functional with IExCor= 4639 and IRadAn=       5 diagonalized for initial guess.
 HarFok:  IExCor= 4639 AccDes= 0.00D+00 IRadAn=         5 IDoV= 1 UseB2=F ITyADJ=14
 ICtDFT=  3500011 ScaDFX=  1.000000  1.000000  1.000000  1.000000
 FoFCou: FMM=F IPFlag=           0 FMFlag=      100000 FMFlg1=           0
         NFxFlg=           0 DoJE=T BraDBF=F KetDBF=T FulRan=T
         wScrn=  0.000000 ICntrl=       500 IOpCl=  0 I1Cent=   200000004 NGrid=           0
         NMat0=    1 NMatS0=      1 NMatT0=    0 NMatD0=    1 NMtDS0=    0 NMtDT0=    0
 Symmetry not used in FoFCou.
 Requested convergence on RMS density matrix=1.00D-08 within 300 cycles.
 Requested convergence on MAX density matrix=1.00D-06.
 Requested convergence on             energy=1.00D-06.
 No special actions if energy rises.
 Inv3:  Mode=1 IEnd=    16468947.
 Iteration    1 A*A^-1 deviation from unit magnitude is 4.33D-15 for   2337.
 Iteration    1 A*A^-1 deviation from orthogonality  is 2.81D-15 for   2341    365.
 Iteration    1 A^-1*A deviation from unit magnitude is 4.44D-15 for   2337.
 Iteration    1 A^-1*A deviation from orthogonality  is 5.55D-15 for   2016   2012.
 Error on total polarization charges =  0.01044
 SCF Done:  E(RwB97XD) =  -659.595084921     A.U. after   16 cycles
            NFock= 16  Conv=0.37D-08     -V/T= 2.0046

 **********************************************************************

            Population analysis using the SCF Density.

 **********************************************************************

 Alpha  occ. eigenvalues --  -14.53155 -14.49352 -14.45531 -10.33747 -10.33317
 Alpha  occ. eigenvalues --  -10.29382 -10.27365 -10.27279 -10.27078 -10.27013
 Alpha  occ. eigenvalues --  -10.26808 -10.26633 -10.26612 -10.26185 -10.25724
 Alpha  occ. eigenvalues --   -6.84522  -1.21387  -1.02644  -0.92869  -0.90852
 Alpha  occ. eigenvalues --   -0.89063  -0.84725  -0.83909  -0.78292  -0.76979
 Alpha  occ. eigenvalues --   -0.76311  -0.73296  -0.70215  -0.68916  -0.65578
 Alpha  occ. eigenvalues --   -0.63188  -0.62379  -0.59383  -0.57242  -0.55163
 Alpha  occ. eigenvalues --   -0.54405  -0.53042  -0.52363  -0.51840  -0.51068
 Alpha  occ. eigenvalues --   -0.50713  -0.49954  -0.49757  -0.48014  -0.47063
 Alpha  occ. eigenvalues --   -0.46211  -0.45768  -0.44287  -0.43560  -0.42700
 Alpha  occ. eigenvalues --   -0.41802  -0.40663  -0.39931  -0.39727  -0.38924
 Alpha  occ. eigenvalues --   -0.37661  -0.36337  -0.35453  -0.35198  -0.33095
 Alpha virt. eigenvalues --    0.02619   0.03690   0.04494   0.04736   0.05426
 Alpha virt. eigenvalues --    0.05966   0.06107   0.06800   0.07165   0.07537
 Alpha virt. eigenvalues --    0.07567   0.08408   0.08713   0.08883   0.09468
 Alpha virt. eigenvalues --    0.09723   0.10008   0.10348   0.10993   0.11200
 Alpha virt. eigenvalues --    0.11736   0.12337   0.12786   0.13118   0.13309
 Alpha virt. eigenvalues --    0.13696   0.14045   0.14732   0.15139   0.15633
 Alpha virt. eigenvalues --    0.15685   0.16319   0.16417   0.16972   0.17305
 Alpha virt. eigenvalues --    0.17406   0.17735   0.18145   0.18427   0.18790
 Alpha virt. eigenvalues --    0.19187   0.19269   0.19416   0.20019   0.20129
 Alpha virt. eigenvalues --    0.20546   0.20665   0.20927   0.21062   0.21438
 Alpha virt. eigenvalues --    0.21613   0.21747   0.22008   0.22353   0.22523
 Alpha virt. eigenvalues --    0.22902   0.23595   0.23917   0.24097   0.24737
 Alpha virt. eigenvalues --    0.24833   0.25135   0.25357   0.25648   0.25850
 Alpha virt. eigenvalues --    0.26066   0.26501   0.26565   0.26753   0.27124
 Alpha virt. eigenvalues --    0.27575   0.27685   0.28441   0.28501   0.28865
 Alpha virt. eigenvalues --    0.29316   0.29638   0.30159   0.30500   0.30762
 Alpha virt. eigenvalues --    0.31263   0.31592   0.31866   0.31991   0.32601
 Alpha virt. eigenvalues --    0.32870   0.33245   0.33671   0.33825   0.34201
 Alpha virt. eigenvalues --    0.34844   0.35347   0.35600   0.36177   0.36412
 Alpha virt. eigenvalues --    0.36800   0.36938   0.37631   0.37740   0.38242
 Alpha virt. eigenvalues --    0.38325   0.39110   0.39476   0.40092   0.40913
 Alpha virt. eigenvalues --    0.41347   0.42131   0.42365   0.42661   0.42826
 Alpha virt. eigenvalues --    0.43333   0.43861   0.44441   0.44788   0.45496
 Alpha virt. eigenvalues --    0.45581   0.45833   0.46949   0.48444   0.49079
 Alpha virt. eigenvalues --    0.49308   0.49661   0.51967   0.52611   0.53429
 Alpha virt. eigenvalues --    0.54139   0.54650   0.55756   0.57030   0.57405
 Alpha virt. eigenvalues --    0.57956   0.58672   0.59787   0.60160   0.60814
 Alpha virt. eigenvalues --    0.62580   0.63123   0.64076   0.64432   0.64982
 Alpha virt. eigenvalues --    0.66795   0.66891   0.67726   0.68311   0.68450
 Alpha virt. eigenvalues --    0.69608   0.70712   0.71282   0.72179   0.72479
 Alpha virt. eigenvalues --    0.72961   0.73567   0.73951   0.75178   0.75420
 Alpha virt. eigenvalues --    0.75926   0.76488   0.77051   0.77264   0.77627
 Alpha virt. eigenvalues --    0.77962   0.78589   0.79445   0.80175   0.80605
 Alpha virt. eigenvalues --    0.80975   0.81722   0.82398   0.82481   0.84141
 Alpha virt. eigenvalues --    0.84295   0.84882   0.85734   0.86369   0.87363
 Alpha virt. eigenvalues --    0.87669   0.87893   0.88812   0.89004   0.89816
 Alpha virt. eigenvalues --    0.90100   0.91198   0.91766   0.91846   0.92178
 Alpha virt. eigenvalues --    0.92833   0.93513   0.94450   0.95390   0.96077
 Alpha virt. eigenvalues --    0.96502   0.98639   0.99739   1.00268   1.01327
 Alpha virt. eigenvalues --    1.02353   1.04922   1.05910   1.06495   1.08557
 Alpha virt. eigenvalues --    1.09138   1.11196   1.11882   1.12900   1.13906
 Alpha virt. eigenvalues --    1.15084   1.16274   1.18641   1.19697   1.20882
 Alpha virt. eigenvalues --    1.22972   1.25087   1.25440   1.27233   1.29017
 Alpha virt. eigenvalues --    1.30697   1.32559   1.34112   1.36660   1.38451
 Alpha virt. eigenvalues --    1.39032   1.40983   1.41825   1.43830   1.45056
 Alpha virt. eigenvalues --    1.46911   1.47827   1.49270   1.49699   1.51160
 Alpha virt. eigenvalues --    1.52945   1.54180   1.55523   1.56327   1.57946
 Alpha virt. eigenvalues --    1.58691   1.59232   1.59879   1.60782   1.62237
 Alpha virt. eigenvalues --    1.62486   1.62599   1.64134   1.64806   1.65557
 Alpha virt. eigenvalues --    1.66130   1.67541   1.68131   1.68779   1.68980
 Alpha virt. eigenvalues --    1.69865   1.70645   1.71376   1.72778   1.73157
 Alpha virt. eigenvalues --    1.73653   1.74665   1.75882   1.76248   1.76892
 Alpha virt. eigenvalues --    1.77711   1.78072   1.79311   1.79752   1.81005
 Alpha virt. eigenvalues --    1.81538   1.82623   1.83779   1.84491   1.84820
 Alpha virt. eigenvalues --    1.85084   1.86058   1.86531   1.87252   1.87827
 Alpha virt. eigenvalues --    1.88402   1.89060   1.89916   1.90707   1.90860
 Alpha virt. eigenvalues --    1.92870   1.94520   1.96093   1.97357   1.98464
 Alpha virt. eigenvalues --    1.99144   2.01180   2.03206   2.05490   2.07365
 Alpha virt. eigenvalues --    2.08464   2.09640   2.10650   2.10984   2.12011
 Alpha virt. eigenvalues --    2.13715   2.14544   2.15971   2.18671   2.18761
 Alpha virt. eigenvalues --    2.20326   2.21554   2.21812   2.23410   2.24156
 Alpha virt. eigenvalues --    2.25914   2.26832   2.28322   2.29911   2.31555
 Alpha virt. eigenvalues --    2.32493   2.34377   2.34759   2.38679   2.39397
 Alpha virt. eigenvalues --    2.40720   2.41964   2.42427   2.43271   2.45873
 Alpha virt. eigenvalues --    2.46736   2.49157   2.51253   2.51552   2.52383
 Alpha virt. eigenvalues --    2.53885   2.54135   2.55764   2.57174   2.58814
 Alpha virt. eigenvalues --    2.59363   2.59985   2.61762   2.62301   2.63805
 Alpha virt. eigenvalues --    2.64378   2.64680   2.65464   2.65903   2.66710
 Alpha virt. eigenvalues --    2.68148   2.69013   2.69373   2.69449   2.70182
 Alpha virt. eigenvalues --    2.71649   2.72724   2.73698   2.75310   2.76507
 Alpha virt. eigenvalues --    2.77480   2.78104   2.79041   2.79741   2.80501
 Alpha virt. eigenvalues --    2.81520   2.84005   2.85298   2.86421   2.87241
 Alpha virt. eigenvalues --    2.87912   2.88425   2.89044   2.90431   2.91387
 Alpha virt. eigenvalues --    2.93353   2.95068   2.97352   2.98044   2.99839
 Alpha virt. eigenvalues --    2.99889   3.01654   3.02392   3.04020   3.07074
 Alpha virt. eigenvalues --    3.09058   3.09876   3.11420   3.13498   3.15118
 Alpha virt. eigenvalues --    3.16661   3.17945   3.20839   3.22150   3.24703
 Alpha virt. eigenvalues --    3.25678   3.26228   3.32115   3.35043   3.37730
 Alpha virt. eigenvalues --    3.41322   3.45219   3.50506   3.54890   3.60394
 Alpha virt. eigenvalues --    3.66064   3.68868   3.74668   3.80488   3.81520
 Alpha virt. eigenvalues --    3.86957   3.88110   3.88694   3.89360   3.90534
 Alpha virt. eigenvalues --    3.91265   3.92166   3.93164   3.94297   3.94547
 Alpha virt. eigenvalues --    3.95475   3.96718   3.98059   4.01314   4.06341
 Alpha virt. eigenvalues --    4.12694   4.16446   4.18683   4.21879   4.27249
 Alpha virt. eigenvalues --    4.32035   4.33815   4.38430   4.41384   4.47873
 Alpha virt. eigenvalues --    4.48870   4.76477   4.95628   5.12217   5.76935
 Alpha virt. eigenvalues --   14.84344  23.89525  23.98700  24.01919  24.05693
 Alpha virt. eigenvalues --   24.07082  24.11084  24.11973  24.13540  24.14131
 Alpha virt. eigenvalues --   24.15344  24.16550  24.26830  35.57802  35.65805
 Alpha virt. eigenvalues --   35.79561
          Condensed to atoms (all electrons):
               1          2          3          4          5          6
     1  C   13.791737   0.504933  -5.557714   0.178160  -0.505314   0.122842
     2  H    0.504933   0.493601  -0.070913  -0.120103   0.099962  -0.062842
     3  C   -5.557714  -0.070913  12.369656  -0.469639   1.238383  -0.605445
     4  N    0.178160  -0.120103  -0.469639   7.179704  -0.451420   0.308696
     5  N   -0.505314   0.099962   1.238383  -0.451420   8.278422  -1.321994
     6  N    0.122842  -0.062842  -0.605445   0.308696  -1.321994   8.293391
     7  C    0.044445  -0.002334  -0.147323   0.039492   0.091704  -0.094133
     8  H    0.052755  -0.004063  -0.041088  -0.032289  -0.024353   0.004434
     9  H   -0.001701   0.002047   0.011214  -0.112326   0.067341   0.002632
    10  H   -0.040705  -0.017637   0.045469  -0.010573  -0.042634   0.008617
    11  C   -0.300438  -0.033999  -0.789471   0.014323  -0.464431   0.573923
    12  C    0.624274  -0.032113  -0.866625   0.060882  -0.043939  -0.003069
    13  C   -0.113331  -0.006545  -0.187477  -0.004302  -0.033379   0.078018
    14  C    0.143090  -0.020910  -0.120194   0.022135  -0.057079   0.057955
    15  C    0.028332  -0.005401  -0.049807   0.000711  -0.012234   0.007264
    16  H    0.001510   0.000149   0.017784  -0.000122   0.001278   0.000138
    17  H   -0.013404  -0.001754  -0.008249   0.001286  -0.000360   0.000828
    18  H   -0.007390  -0.003533   0.010249   0.000740  -0.001543   0.001511
    19  H   -0.002637   0.000407  -0.014843  -0.000023  -0.000837   0.003253
    20  H    0.004204  -0.000247   0.001906   0.000163  -0.000399  -0.000270
    21  H   -0.021335  -0.000051  -0.035777  -0.000382   0.001300   0.002696
    22  B   -2.408453  -0.014326  -0.123174   0.087803  -0.398864   0.362935
    23  C    0.746499  -0.011731  -0.080489  -0.004824  -0.024373   0.049245
    24  H    0.144464  -0.004817  -0.059242   0.007192  -0.032812   0.033950
    25  H    0.041427   0.001780  -0.022741  -0.000180   0.001863  -0.003188
    26  H   -0.031791  -0.003953   0.002630   0.001527  -0.009337   0.013375
    27  C   -1.100663   0.058165   0.758273  -0.058170   0.032293   0.046832
    28  H    0.022399  -0.013619  -0.036695   0.007315  -0.010470   0.010102
    29  H   -0.006201   0.001761   0.012682  -0.002648   0.001232   0.000452
    30  H   -0.062384  -0.021135   0.044276   0.012406  -0.023036   0.021235
    31  C   -0.139164   0.028348   0.423348  -0.033489   0.339269  -0.382761
    32  H    0.031864   0.004697   0.039918  -0.002582   0.030821  -0.036410
    33  H    0.043170   0.001913  -0.002070   0.001819   0.011933  -0.004222
    34  H    0.008432   0.000620   0.014467  -0.000807   0.005579  -0.009429
    35  C    0.366649   0.003318   0.847991   0.013816   0.150164  -0.270747
    36  H    0.003721   0.000044   0.028509  -0.000515   0.000722  -0.004340
    37  H    0.065414   0.001439   0.070154  -0.005376   0.005224  -0.002264
    38  H    0.018350  -0.000744  -0.026915   0.004574  -0.002789   0.001880
               7          8          9         10         11         12
     1  C    0.044445   0.052755  -0.001701  -0.040705  -0.300438   0.624274
     2  H   -0.002334  -0.004063   0.002047  -0.017637  -0.033999  -0.032113
     3  C   -0.147323  -0.041088   0.011214   0.045469  -0.789471  -0.866625
     4  N    0.039492  -0.032289  -0.112326  -0.010573   0.014323   0.060882
     5  N    0.091704  -0.024353   0.067341  -0.042634  -0.464431  -0.043939
     6  N   -0.094133   0.004434   0.002632   0.008617   0.573923  -0.003069
     7  C    5.250576   0.403299   0.409046   0.396975  -0.008216  -0.001542
     8  H    0.403299   0.522389  -0.019448  -0.051458   0.000182  -0.001022
     9  H    0.409046  -0.019448   0.446336  -0.020558   0.000502  -0.000331
    10  H    0.396975  -0.051458  -0.020558   0.522240   0.001377   0.001311
    11  C   -0.008216   0.000182   0.000502   0.001377   7.686712  -0.143063
    12  C   -0.001542  -0.001022  -0.000331   0.001311  -0.143063   8.014584
    13  C   -0.001412   0.000171   0.000135   0.000099  -0.844937   0.085852
    14  C   -0.000086   0.001204   0.000046  -0.000440   0.296928  -1.511782
    15  C   -0.000100   0.000092   0.000003  -0.000014   0.019844  -0.044018
    16  H    0.000016  -0.000003   0.000002   0.000004  -0.012553   0.010316
    17  H    0.000048   0.000019   0.000002  -0.000016  -0.022460  -0.018543
    18  H    0.000122   0.000004   0.000006   0.000037   0.019482   0.034689
    19  H    0.000038  -0.000001   0.000008   0.000007  -0.025293  -0.046450
    20  H    0.000011   0.000004   0.000001  -0.000002   0.012228  -0.000858
    21  H   -0.000061   0.000010  -0.000008  -0.000007   0.047749   0.062980
    22  B   -0.027208  -0.010067  -0.001635   0.010588   1.752493   1.637470
    23  C    0.007686   0.002322   0.000860  -0.001286  -0.064596  -0.940956
    24  H   -0.000039   0.001311   0.000223  -0.000460  -0.015858  -0.140352
    25  H    0.000063   0.000041   0.000019  -0.000090  -0.009370   0.031276
    26  H    0.000518   0.000051   0.000021   0.000048   0.030572  -0.003903
    27  C   -0.009171   0.000705  -0.000121  -0.002130   0.121801  -0.961806
    28  H    0.001192   0.001329  -0.000036  -0.000109   0.021850  -0.024553
    29  H   -0.000264  -0.000061   0.000045  -0.000164   0.000935  -0.028261
    30  H   -0.001995  -0.002847  -0.000034   0.002193   0.039901   0.002775
    31  C    0.004840  -0.000070  -0.000551  -0.001493  -0.938199   0.107995
    32  H    0.001429  -0.000152  -0.000052   0.000068  -0.046972   0.035239
    33  H    0.000838   0.000057   0.000007  -0.000136  -0.107302   0.028798
    34  H    0.000092   0.000028  -0.000005  -0.000106  -0.009011  -0.007396
    35  C    0.002958  -0.000103   0.000355  -0.000435  -0.837328  -0.047242
    36  H    0.000019  -0.000001   0.000006  -0.000001   0.040043  -0.001379
    37  H    0.000458  -0.000084   0.000241  -0.000141  -0.156061  -0.009720
    38  H    0.000115   0.000027   0.000009   0.000025   0.009616  -0.035659
              13         14         15         16         17         18
     1  C   -0.113331   0.143090   0.028332   0.001510  -0.013404  -0.007390
     2  H   -0.006545  -0.020910  -0.005401   0.000149  -0.001754  -0.003533
     3  C   -0.187477  -0.120194  -0.049807   0.017784  -0.008249   0.010249
     4  N   -0.004302   0.022135   0.000711  -0.000122   0.001286   0.000740
     5  N   -0.033379  -0.057079  -0.012234   0.001278  -0.000360  -0.001543
     6  N    0.078018   0.057955   0.007264   0.000138   0.000828   0.001511
     7  C   -0.001412  -0.000086  -0.000100   0.000016   0.000048   0.000122
     8  H    0.000171   0.001204   0.000092  -0.000003   0.000019   0.000004
     9  H    0.000135   0.000046   0.000003   0.000002   0.000002   0.000006
    10  H    0.000099  -0.000440  -0.000014   0.000004  -0.000016   0.000037
    11  C   -0.844937   0.296928   0.019844  -0.012553  -0.022460   0.019482
    12  C    0.085852  -1.511782  -0.044018   0.010316  -0.018543   0.034689
    13  C    8.022817  -0.664698  -0.071888   0.410759   0.400696  -0.027373
    14  C   -0.664698   8.505344  -0.002121  -0.023810   0.034926   0.405394
    15  C   -0.071888  -0.002121   5.945561  -0.080281  -0.042672  -0.057521
    16  H    0.410759  -0.023810  -0.080281   0.539481  -0.025709  -0.000938
    17  H    0.400696   0.034926  -0.042672  -0.025709   0.543336   0.000244
    18  H   -0.027373   0.405394  -0.057521  -0.000938   0.000244   0.551483
    19  H    0.041018   0.391930  -0.037193  -0.001792   0.002646  -0.026670
    20  H   -0.048565  -0.011380   0.422424  -0.009032  -0.013328  -0.007095
    21  H   -0.089424  -0.125314   0.522617  -0.005821   0.010096  -0.005426
    22  B   -0.025378  -1.251514   0.136643   0.005152  -0.081241  -0.009061
    23  C    0.304792   0.284749   0.001803   0.011547  -0.005428  -0.024282
    24  H    0.010618   0.115035   0.011882   0.000897  -0.000737  -0.001853
    25  H    0.012426  -0.084007   0.004906   0.000575  -0.000106   0.001780
    26  H    0.021899   0.002858  -0.012540  -0.001331   0.000811   0.006554
    27  C   -0.075571  -0.114525  -0.091421  -0.007655   0.009318  -0.034190
    28  H    0.006892  -0.001402   0.004630  -0.000055   0.002805  -0.000330
    29  H    0.006382  -0.034436   0.000176  -0.000294  -0.000673   0.005249
    30  H   -0.022024   0.027807  -0.000913  -0.001317   0.000648   0.008944
    31  C   -0.146799  -0.257753  -0.154477  -0.003271   0.025894  -0.009969
    32  H   -0.085706  -0.016434  -0.008202   0.000852   0.011542  -0.000799
    33  H    0.030531  -0.011997  -0.007932   0.005449  -0.001576  -0.000814
    34  H   -0.037965   0.005715  -0.005937   0.002503  -0.007014  -0.000227
    35  C   -0.691273   0.258829  -0.016437  -0.016388   0.033116   0.009547
    36  H   -0.109575   0.006846   0.004023   0.006453  -0.002513   0.000240
    37  H   -0.009760   0.000472   0.007651   0.001120  -0.004071   0.000401
    38  H    0.051689   0.050769  -0.014535   0.001336   0.000769  -0.000413
              19         20         21         22         23         24
     1  C   -0.002637   0.004204  -0.021335  -2.408453   0.746499   0.144464
     2  H    0.000407  -0.000247  -0.000051  -0.014326  -0.011731  -0.004817
     3  C   -0.014843   0.001906  -0.035777  -0.123174  -0.080489  -0.059242
     4  N   -0.000023   0.000163  -0.000382   0.087803  -0.004824   0.007192
     5  N   -0.000837  -0.000399   0.001300  -0.398864  -0.024373  -0.032812
     6  N    0.003253  -0.000270   0.002696   0.362935   0.049245   0.033950
     7  C    0.000038   0.000011  -0.000061  -0.027208   0.007686  -0.000039
     8  H   -0.000001   0.000004   0.000010  -0.010067   0.002322   0.001311
     9  H    0.000008   0.000001  -0.000008  -0.001635   0.000860   0.000223
    10  H    0.000007  -0.000002  -0.000007   0.010588  -0.001286  -0.000460
    11  C   -0.025293   0.012228   0.047749   1.752493  -0.064596  -0.015858
    12  C   -0.046450  -0.000858   0.062980   1.637470  -0.940956  -0.140352
    13  C    0.041018  -0.048565  -0.089424  -0.025378   0.304792   0.010618
    14  C    0.391930  -0.011380  -0.125314  -1.251514   0.284749   0.115035
    15  C   -0.037193   0.422424   0.522617   0.136643   0.001803   0.011882
    16  H   -0.001792  -0.009032  -0.005821   0.005152   0.011547   0.000897
    17  H    0.002646  -0.013328   0.010096  -0.081241  -0.005428  -0.000737
    18  H   -0.026670  -0.007095  -0.005426  -0.009061  -0.024282  -0.001853
    19  H    0.538215  -0.013313   0.007977  -0.081485   0.048955  -0.002471
    20  H   -0.013313   0.500742  -0.034546  -0.012786   0.005307   0.002231
    21  H    0.007977  -0.034546   0.561101   0.119019  -0.099369  -0.010674
    22  B   -0.081485  -0.012786   0.119019  11.667284  -2.908320  -0.378120
    23  C    0.048955   0.005307  -0.099369  -2.908320   8.281950   0.653947
    24  H   -0.002471   0.002231  -0.010674  -0.378120   0.653947   0.547872
    25  H   -0.002002  -0.000281  -0.003362  -0.004614   0.456227  -0.020196
    26  H    0.002377  -0.001374  -0.010664   0.041319   0.340661  -0.026372
    27  C    0.056912  -0.012282   0.036185   0.053988  -0.339256  -0.045779
    28  H    0.013190  -0.000065   0.002617  -0.128191   0.084421   0.005599
    29  H   -0.006605   0.000152  -0.001093   0.018521  -0.004012   0.001652
    30  H   -0.001625   0.000394  -0.000032  -0.032084  -0.072145  -0.005601
    31  C    0.002438  -0.011913   0.030130  -0.633531  -0.161429  -0.038803
    32  H   -0.002739  -0.000786   0.001715  -0.217893  -0.026047  -0.003165
    33  H   -0.001245   0.000207  -0.000833  -0.117829  -0.017495  -0.000954
    34  H    0.000323   0.000783  -0.000381   0.038562   0.003468   0.000286
    35  C   -0.011062   0.002829  -0.082213  -2.472856   0.222917   0.034425
    36  H   -0.000266  -0.000146  -0.004767   0.000183   0.008337   0.002218
    37  H   -0.000254   0.001074  -0.006436  -0.225496   0.026801   0.005000
    38  H    0.000307  -0.000337  -0.009901   0.014511   0.011870   0.004683
              25         26         27         28         29         30
     1  C    0.041427  -0.031791  -1.100663   0.022399  -0.006201  -0.062384
     2  H    0.001780  -0.003953   0.058165  -0.013619   0.001761  -0.021135
     3  C   -0.022741   0.002630   0.758273  -0.036695   0.012682   0.044276
     4  N   -0.000180   0.001527  -0.058170   0.007315  -0.002648   0.012406
     5  N    0.001863  -0.009337   0.032293  -0.010470   0.001232  -0.023036
     6  N   -0.003188   0.013375   0.046832   0.010102   0.000452   0.021235
     7  C    0.000063   0.000518  -0.009171   0.001192  -0.000264  -0.001995
     8  H    0.000041   0.000051   0.000705   0.001329  -0.000061  -0.002847
     9  H    0.000019   0.000021  -0.000121  -0.000036   0.000045  -0.000034
    10  H   -0.000090   0.000048  -0.002130  -0.000109  -0.000164   0.002193
    11  C   -0.009370   0.030572   0.121801   0.021850   0.000935   0.039901
    12  C    0.031276  -0.003903  -0.961806  -0.024553  -0.028261   0.002775
    13  C    0.012426   0.021899  -0.075571   0.006892   0.006382  -0.022024
    14  C   -0.084007   0.002858  -0.114525  -0.001402  -0.034436   0.027807
    15  C    0.004906  -0.012540  -0.091421   0.004630   0.000176  -0.000913
    16  H    0.000575  -0.001331  -0.007655  -0.000055  -0.000294  -0.001317
    17  H   -0.000106   0.000811   0.009318   0.002805  -0.000673   0.000648
    18  H    0.001780   0.006554  -0.034190  -0.000330   0.005249   0.008944
    19  H   -0.002002   0.002377   0.056912   0.013190  -0.006605  -0.001625
    20  H   -0.000281  -0.001374  -0.012282  -0.000065   0.000152   0.000394
    21  H   -0.003362  -0.010664   0.036185   0.002617  -0.001093  -0.000032
    22  B   -0.004614   0.041319   0.053988  -0.128191   0.018521  -0.032084
    23  C    0.456227   0.340661  -0.339256   0.084421  -0.004012  -0.072145
    24  H   -0.020196  -0.026372  -0.045779   0.005599   0.001652  -0.005601
    25  H    0.522157  -0.042948  -0.091712  -0.000298   0.002122  -0.005615
    26  H   -0.042948   0.578067   0.064823  -0.002632   0.002129   0.007581
    27  C   -0.091712   0.064823   7.429256   0.401443   0.406633   0.406060
    28  H   -0.000298  -0.002632   0.401443   0.551073  -0.034955  -0.024986
    29  H    0.002122   0.002129   0.406633  -0.034955   0.531098  -0.038556
    30  H   -0.005615   0.007581   0.406060  -0.024986  -0.038556   0.636989
    31  C    0.005419  -0.039581  -0.098426  -0.012199  -0.002614  -0.020966
    32  H    0.000677  -0.002782  -0.034378  -0.004182  -0.000445  -0.003631
    33  H    0.000787  -0.001956  -0.022108  -0.002537  -0.000456  -0.002538
    34  H    0.000013  -0.001000   0.002881   0.000413   0.000209   0.000050
    35  C    0.013566  -0.046146  -0.191113  -0.011361   0.001862  -0.015533
    36  H   -0.000494   0.002219  -0.000639  -0.000225   0.000130   0.000261
    37  H    0.001273  -0.003569  -0.017818  -0.001327   0.000368  -0.001111
    38  H    0.003210  -0.022284  -0.026966   0.001047  -0.001302  -0.001353
              31         32         33         34         35         36
     1  C   -0.139164   0.031864   0.043170   0.008432   0.366649   0.003721
     2  H    0.028348   0.004697   0.001913   0.000620   0.003318   0.000044
     3  C    0.423348   0.039918  -0.002070   0.014467   0.847991   0.028509
     4  N   -0.033489  -0.002582   0.001819  -0.000807   0.013816  -0.000515
     5  N    0.339269   0.030821   0.011933   0.005579   0.150164   0.000722
     6  N   -0.382761  -0.036410  -0.004222  -0.009429  -0.270747  -0.004340
     7  C    0.004840   0.001429   0.000838   0.000092   0.002958   0.000019
     8  H   -0.000070  -0.000152   0.000057   0.000028  -0.000103  -0.000001
     9  H   -0.000551  -0.000052   0.000007  -0.000005   0.000355   0.000006
    10  H   -0.001493   0.000068  -0.000136  -0.000106  -0.000435  -0.000001
    11  C   -0.938199  -0.046972  -0.107302  -0.009011  -0.837328   0.040043
    12  C    0.107995   0.035239   0.028798  -0.007396  -0.047242  -0.001379
    13  C   -0.146799  -0.085706   0.030531  -0.037965  -0.691273  -0.109575
    14  C   -0.257753  -0.016434  -0.011997   0.005715   0.258829   0.006846
    15  C   -0.154477  -0.008202  -0.007932  -0.005937  -0.016437   0.004023
    16  H   -0.003271   0.000852   0.005449   0.002503  -0.016388   0.006453
    17  H    0.025894   0.011542  -0.001576  -0.007014   0.033116  -0.002513
    18  H   -0.009969  -0.000799  -0.000814  -0.000227   0.009547   0.000240
    19  H    0.002438  -0.002739  -0.001245   0.000323  -0.011062  -0.000266
    20  H   -0.011913  -0.000786   0.000207   0.000783   0.002829  -0.000146
    21  H    0.030130   0.001715  -0.000833  -0.000381  -0.082213  -0.004767
    22  B   -0.633531  -0.217893  -0.117829   0.038562  -2.472856   0.000183
    23  C   -0.161429  -0.026047  -0.017495   0.003468   0.222917   0.008337
    24  H   -0.038803  -0.003165  -0.000954   0.000286   0.034425   0.002218
    25  H    0.005419   0.000677   0.000787   0.000013   0.013566  -0.000494
    26  H   -0.039581  -0.002782  -0.001956  -0.001000  -0.046146   0.002219
    27  C   -0.098426  -0.034378  -0.022108   0.002881  -0.191113  -0.000639
    28  H   -0.012199  -0.004182  -0.002537   0.000413  -0.011361  -0.000225
    29  H   -0.002614  -0.000445  -0.000456   0.000209   0.001862   0.000130
    30  H   -0.020966  -0.003631  -0.002538   0.000050  -0.015533   0.000261
    31  C    7.107615   0.513577   0.509694   0.395124   0.169188  -0.059371
    32  H    0.513577   0.585259  -0.011432  -0.041565   0.114408  -0.000720
    33  H    0.509694  -0.011432   0.531415  -0.040477  -0.006421   0.000711
    34  H    0.395124  -0.041565  -0.040477   0.553788  -0.035044   0.002472
    35  C    0.169188   0.114408  -0.006421  -0.035044   7.963113   0.430859
    36  H   -0.059371  -0.000720   0.000711   0.002472   0.430859   0.541130
    37  H    0.004775   0.005683   0.001703  -0.001532   0.595003  -0.017880
    38  H    0.032529  -0.003264   0.003960   0.002309   0.274993  -0.049922
              37         38
     1  C    0.065414   0.018350
     2  H    0.001439  -0.000744
     3  C    0.070154  -0.026915
     4  N   -0.005376   0.004574
     5  N    0.005224  -0.002789
     6  N   -0.002264   0.001880
     7  C    0.000458   0.000115
     8  H   -0.000084   0.000027
     9  H    0.000241   0.000009
    10  H   -0.000141   0.000025
    11  C   -0.156061   0.009616
    12  C   -0.009720  -0.035659
    13  C   -0.009760   0.051689
    14  C    0.000472   0.050769
    15  C    0.007651  -0.014535
    16  H    0.001120   0.001336
    17  H   -0.004071   0.000769
    18  H    0.000401  -0.000413
    19  H   -0.000254   0.000307
    20  H    0.001074  -0.000337
    21  H   -0.006436  -0.009901
    22  B   -0.225496   0.014511
    23  C    0.026801   0.011870
    24  H    0.005000   0.004683
    25  H    0.001273   0.003210
    26  H   -0.003569  -0.022284
    27  C   -0.017818  -0.026966
    28  H   -0.001327   0.001047
    29  H    0.000368  -0.001302
    30  H   -0.001111  -0.001353
    31  C    0.004775   0.032529
    32  H    0.005683  -0.003264
    33  H    0.001703   0.003960
    34  H   -0.001532   0.002309
    35  C    0.595003   0.274993
    36  H   -0.017880  -0.049922
    37  H    0.476589  -0.016824
    38  H   -0.016824   0.581152
 Mulliken charges:
               1
     1  C   -0.676046
     2  H    0.249585
     3  C   -0.621016
     4  N    0.367028
     5  N    0.104106
     6  N   -0.205090
     7  C   -0.362095
     8  H    0.196675
     9  H    0.215700
    10  H    0.201536
    11  C    0.139097
    12  C    0.176142
    13  C   -0.187413
    14  C   -0.302150
    15  C   -0.402919
    16  H    0.173050
    17  H    0.170822
    18  H    0.162751
    19  H    0.168806
    20  H    0.224346
    21  H    0.141684
    22  B    0.617654
    23  C   -0.768331
    24  H    0.204818
    25  H    0.189593
    26  H    0.144124
    27  C   -0.549672
    28  H    0.171911
    29  H    0.169250
    30  H    0.149940
    31  C   -0.553355
    32  H    0.172591
    33  H    0.189337
    34  H    0.159778
    35  C   -0.758205
    36  H    0.173610
    37  H    0.208881
    38  H    0.143479
 Sum of Mulliken charges =  -0.00000
 Mulliken charges with hydrogens summed into heavy atoms:
               1
     1  C   -0.426462
     3  C   -0.621016
     4  N    0.367028
     5  N    0.104106
     6  N   -0.205090
     7  C    0.251815
    11  C    0.139097
    12  C    0.176142
    13  C    0.156459
    14  C    0.029407
    15  C   -0.036889
    22  B    0.617654
    23  C   -0.229796
    27  C   -0.058571
    31  C   -0.031650
    35  C   -0.232234
 Electronic spatial extent (au):  <R**2>=          10474.7774
 Charge=             -0.0000 electrons
 Dipole moment (field-independent basis, Debye):
    X=             -4.7282    Y=              2.1719    Z=              0.2345  Tot=              5.2084
 Quadrupole moment (field-independent basis, Debye-Ang):
   XX=           -124.5041   YY=           -101.9808   ZZ=            -99.1461
   XY=              6.5425   XZ=              8.8955   YZ=             -2.4369
 Traceless Quadrupole moment (field-independent basis, Debye-Ang):
   XX=            -15.9604   YY=              6.5629   ZZ=              9.3976
   XY=              6.5425   XZ=              8.8955   YZ=             -2.4369
 Octapole moment (field-independent basis, Debye-Ang**2):
  XXX=          -1215.4195  YYY=             29.9972  ZZZ=           -445.5552  XYY=           -376.8719
  XXY=             31.9420  XXZ=           -101.3713  XZZ=           -384.9285  YZZ=             15.8237
  YYZ=           -146.2193  XYZ=             -3.4349
 Hexadecapole moment (field-independent basis, Debye-Ang**3):
 XXXX=          -9951.2660 YYYY=          -1206.1753 ZZZZ=          -4166.4306 XXXY=            414.9091
 XXXZ=          -1912.5331 YYYX=            334.4297 YYYZ=             27.3636 ZZZX=          -2090.9073
 ZZZY=             10.1646 XXYY=          -1802.2843 XXZZ=          -2357.3332 YYZZ=           -892.1223
 XXYZ=             -0.2712 YYXZ=           -697.4628 ZZXY=            133.5521
 N-N= 1.157759208016D+03 E-N=-3.846906851615D+03  KE= 6.565899556802D+02
 Breneman (CHELPG) radii used.
 Generate Potential Derived Charges using the Breneman model, NDens= 1.
 Grid spacing= 0.300 Box extension= 2.800
 NStep X,Y,Z=   42     42     50   Total possible points=       88200
 Number of Points to Fit=   19046

 **********************************************************************

            Electrostatic Properties Using The SCF Density.

 **********************************************************************

       Atomic Center    1 is at   2.013907  0.403287 -0.144278
       Atomic Center    2 is at   1.138739  0.801404  0.339616
       Atomic Center    3 is at   3.231702 -0.038223  0.339083
       Atomic Center    4 is at   2.057389  0.211682 -1.473900
       Atomic Center    5 is at   3.241846 -0.303873 -1.832753
       Atomic Center    6 is at   3.939401 -0.469575 -0.760937
       Atomic Center    7 is at   1.036135  0.478367 -2.468401
       Atomic Center    8 is at   0.751102  1.530243 -2.439870
       Atomic Center    9 is at   1.459165  0.241302 -3.442270
       Atomic Center   10 is at   0.162206 -0.148166 -2.287244
       Atomic Center   11 is at   4.733478 -1.368666  2.182580
       Atomic Center   12 is at   3.536981  1.046573  2.840096
       Atomic Center   13 is at   4.805999 -1.587169  3.708933
       Atomic Center   14 is at   3.744029  0.606343  4.303902
       Atomic Center   15 is at   4.947065 -0.305626  4.523173
       Atomic Center   16 is at   5.633121 -2.274768  3.929353
       Atomic Center   17 is at   3.890130 -2.098445  4.036008
       Atomic Center   18 is at   3.821635  1.501001  4.936045
       Atomic Center   19 is at   2.844452  0.072637  4.639650
       Atomic Center   20 is at   5.029437 -0.551669  5.586644
       Atomic Center   21 is at   5.875007  0.214793  4.260258
       Atomic Center   22 is at   3.793517 -0.135894  1.800496
       Atomic Center   23 is at   4.606513  2.107514  2.465031
       Atomic Center   24 is at   4.498056  2.438003  1.427727
       Atomic Center   25 is at   4.483527  2.984098  3.112336
       Atomic Center   26 is at   5.628721  1.744924  2.592660
       Atomic Center   27 is at   2.164612  1.730356  2.739845
       Atomic Center   28 is at   1.341126  1.017815  2.857176
       Atomic Center   29 is at   2.065581  2.477541  3.536313
       Atomic Center   30 is at   2.038036  2.256469  1.790701
       Atomic Center   31 is at   4.255281 -2.683164  1.538488
       Atomic Center   32 is at   3.220574 -2.913656  1.815469
       Atomic Center   33 is at   4.314165 -2.643418  0.449802
       Atomic Center   34 is at   4.881192 -3.515085  1.884636
       Atomic Center   35 is at   6.150619 -1.060234  1.638276
       Atomic Center   36 is at   6.802514 -1.921228  1.831006
       Atomic Center   37 is at   6.132089 -0.882458  0.560994
       Atomic Center   38 is at   6.605591 -0.191148  2.120495
   19046 points will be used for fitting atomic charges
 Fitting point charges to electrostatic potential
 Charges from ESP fit, RMS=   0.00268 RRMS=   0.15386:
 ESP charges:
               1
     1  C   -0.426928
     2  H    0.189649
     3  C    0.174604
     4  N    0.589437
     5  N   -0.472005
     6  N   -0.139366
     7  C   -0.264694
     8  H    0.107919
     9  H    0.113069
    10  H    0.106915
    11  C    0.254655
    12  C    0.337364
    13  C   -0.179143
    14  C   -0.173202
    15  C    0.007905
    16  H    0.019872
    17  H    0.042171
    18  H    0.031743
    19  H    0.022431
    20  H    0.026214
    21  H   -0.014851
    22  B    0.135545
    23  C   -0.361060
    24  H    0.051673
    25  H    0.085949
    26  H    0.102449
    27  C   -0.295560
    28  H    0.046546
    29  H    0.056571
    30  H    0.063526
    31  C   -0.363309
    32  H    0.045104
    33  H    0.082108
    34  H    0.078118
    35  C    0.004516
    36  H    0.009791
    37  H   -0.094779
    38  H   -0.000946
 Sum of ESP charges =   0.00000
 ESP charges with hydrogens summed into heavy atoms:
               1
     1  C   -0.237279
     3  C    0.174604
     4  N    0.589437
     5  N   -0.472005
     6  N   -0.139366
     7  C    0.063209
    11  C    0.254655
    12  C    0.337364
    13  C   -0.117100
    14  C   -0.119029
    15  C    0.019268
    22  B    0.135545
    23  C   -0.120988
    27  C   -0.128917
    31  C   -0.157979
    35  C   -0.081418
 Charge=   0.00000 Dipole=    -4.6436     2.1586     0.2454 Tot=     5.1267
 -----------------------------------------------------------------

              Electrostatic Properties (Atomic Units)

 -----------------------------------------------------------------
    Center     Electric         -------- Electric Field --------
               Potential          X             Y             Z
 -----------------------------------------------------------------
    1 Atom    -14.725502
    2 Atom     -1.048793
    3 Atom    -14.772584
    4 Atom    -18.294983
    5 Atom    -18.359963
    6 Atom    -18.396975
    7 Atom    -14.708397
    8 Atom     -1.069953
    9 Atom     -1.074397
   10 Atom     -1.071025
   11 Atom    -14.791587
   12 Atom    -14.779268
   13 Atom    -14.792532
   14 Atom    -14.785767
   15 Atom    -14.788430
   16 Atom     -1.143750
   17 Atom     -1.141462
   18 Atom     -1.136577
   19 Atom     -1.135207
   20 Atom     -1.137772
   21 Atom     -1.138209
   22 Atom    -11.470280
   23 Atom    -14.783852
   24 Atom     -1.126187
   25 Atom     -1.122923
   26 Atom     -1.125711
   27 Atom    -14.782462
   28 Atom     -1.118763
   29 Atom     -1.123705
   30 Atom     -1.119992
   31 Atom    -14.805695
   32 Atom     -1.141080
   33 Atom     -1.151661
   34 Atom     -1.144465
   35 Atom    -14.801020
   36 Atom     -1.140296
   37 Atom     -1.149090
   38 Atom     -1.137829
 -----------------------------------------------------------------
 Unable to Open any file for archive entry.
 1\1\GINC-IRENE4809\SP\RwB97XD\GenECP\C12H22B1N3\PENASFRA\09-Apr-2024\0
 \\# wb97xd/genecp scrf=(solvent=toluene,pcm) nosymm pop=(chelpg) scfcy
 c=300\\4meborinane_metriazole_chelpg\\0,1\C,0,2.013907,0.403287,-0.144
 278\H,0,1.138739,0.801404,0.339616\C,0,3.231702,-0.038223,0.339083\N,0
 ,2.057389,0.211682,-1.4739\N,0,3.241846,-0.303873,-1.832753\N,0,3.9394
 01,-0.469575,-0.760937\C,0,1.036135,0.478367,-2.468401\H,0,0.751102,1.
 530243,-2.43987\H,0,1.459165,0.241302,-3.44227\H,0,0.162206,-0.148166,
 -2.287244\C,0,4.733478,-1.368666,2.18258\C,0,3.536981,1.046573,2.84009
 6\C,0,4.805999,-1.587169,3.708933\C,0,3.744029,0.606343,4.303902\C,0,4
 .947065,-0.305626,4.523173\H,0,5.633121,-2.274768,3.929353\H,0,3.89013
 ,-2.098445,4.036008\H,0,3.821635,1.501001,4.936045\H,0,2.844452,0.0726
 37,4.63965\H,0,5.029437,-0.551669,5.586644\H,0,5.875007,0.214793,4.260
 258\B,0,3.793517,-0.135894,1.800496\C,0,4.606513,2.107514,2.465031\H,0
 ,4.498056,2.438003,1.427727\H,0,4.483527,2.984098,3.112336\H,0,5.62872
 1,1.744924,2.59266\C,0,2.164612,1.730356,2.739845\H,0,1.341126,1.01781
 5,2.857176\H,0,2.065581,2.477541,3.536313\H,0,2.038036,2.256469,1.7907
 01\C,0,4.255281,-2.683164,1.538488\H,0,3.220574,-2.913656,1.815469\H,0
 ,4.314165,-2.643418,0.449802\H,0,4.881192,-3.515085,1.884636\C,0,6.150
 619,-1.060234,1.638276\H,0,6.802514,-1.921228,1.831006\H,0,6.132089,-0
 .882458,0.560994\H,0,6.605591,-0.191148,2.120495\\Version=AS64L-G16Rev
 C.02\HF=-659.5950849\RMSD=3.697e-09\Dipole=-1.8602069,0.854478,0.09225
 12\Quadrupole=-11.866198,4.8793384,6.9868596,4.8642243,6.6135983,-1.81
 17428\PG=C01 [X(C12H22B1N3)]\\@
 The archive entry for this job was punched.


 TRUTH, IN SCIENCE, CAN BE DEFINED AS THE WORKING HYPOTHESIS 
 BEST FITTED TO OPEN THE WAY TO THE NEXT BETTER ONE.

                              -- KONRAD LORENZ
 Job cpu time:       0 days  1 hours 37 minutes 39.3 seconds.
 Elapsed time:       0 days  0 hours  0 minutes 58.9 seconds.
 File lengths (MBytes):  RWF=    227 Int=      0 D2E=      0 Chk=     17 Scr=      1
 Normal termination of Gaussian 16 at Tue Apr  9 16:52:21 2024.
