 Entering Gaussian System, Link 0=/ccc/products/gaussian-16-C.02/system/default/g16/g16
 Input=bicyclo_xanthene_chelpg.gjf
 Output=bicyclo_xanthene_chelpg.log
 Initial command:
 /ccc/products/gaussian-16-C.02/system/default/g16/l1.exe "/ccc/scratch/cont003/gen7343/penasfra/flp/b-n_flp/bicyclo_xanthene/reac/Gau-92633.inp" -scrdir="/ccc/scratch/cont003/gen7343/penasfra/flp/b-n_flp/bicyclo_xanthene/reac/"
 Entering Link 1 = /ccc/products/gaussian-16-C.02/system/default/g16/l1.exe PID=     92682.
  
 Copyright (c) 1988-2021, Gaussian, Inc.  All Rights Reserved.
  
 This is part of the Gaussian(R) 16 program.  It is based on
 the Gaussian(R) 09 system (copyright 2009, Gaussian, Inc.),
 the Gaussian(R) 03 system (copyright 2003, Gaussian, Inc.),
 the Gaussian(R) 98 system (copyright 1998, Gaussian, Inc.),
 the Gaussian(R) 94 system (copyright 1995, Gaussian, Inc.),
 the Gaussian 92(TM) system (copyright 1992, Gaussian, Inc.),
 the Gaussian 90(TM) system (copyright 1990, Gaussian, Inc.),
 the Gaussian 88(TM) system (copyright 1988, Gaussian, Inc.),
 the Gaussian 86(TM) system (copyright 1986, Carnegie Mellon
 University), and the Gaussian 82(TM) system (copyright 1983,
 Carnegie Mellon University). Gaussian is a federally registered
 trademark of Gaussian, Inc.
  
 This software contains proprietary and confidential information,
 including trade secrets, belonging to Gaussian, Inc.
  
 This software is provided under written license and may be
 used, copied, transmitted, or stored only in accord with that
 written license.
  
 The following legend is applicable only to US Government
 contracts under FAR:
  
                    RESTRICTED RIGHTS LEGEND
  
 Use, reproduction and disclosure by the US Government is
 subject to restrictions as set forth in subparagraphs (a)
 and (c) of the Commercial Computer Software - Restricted
 Rights clause in FAR 52.227-19.
  
 Gaussian, Inc.
 340 Quinnipiac St., Bldg. 40, Wallingford CT 06492
  
  
 ---------------------------------------------------------------
 Warning -- This program may not be used in any manner that
 competes with the business of Gaussian, Inc. or will provide
 assistance to any competitor of Gaussian, Inc.  The licensee
 of this program is prohibited from giving any competitor of
 Gaussian, Inc. access to this program.  By using this program,
 the user acknowledges that Gaussian, Inc. is engaged in the
 business of creating and licensing software in the field of
 computational chemistry and represents and warrants to the
 licensee that it is not a competitor of Gaussian, Inc. and that
 it will not use this program in any manner prohibited above.
 ---------------------------------------------------------------
  

 Cite this work as:
 Gaussian 16, Revision C.02,
 M. J. Frisch, G. W. Trucks, H. B. Schlegel, G. E. Scuseria, 
 M. A. Robb, J. R. Cheeseman, G. Scalmani, V. Barone, 
 G. A. Petersson, H. Nakatsuji, X. Li, M. Caricato, A. V. Marenich, 
 J. Bloino, B. G. Janesko, R. Gomperts, B. Mennucci, H. P. Hratchian, 
 J. V. Ortiz, A. F. Izmaylov, J. L. Sonnenberg, D. Williams-Young, 
 F. Ding, F. Lipparini, F. Egidi, J. Goings, B. Peng, A. Petrone, 
 T. Henderson, D. Ranasinghe, V. G. Zakrzewski, J. Gao, N. Rega, 
 G. Zheng, W. Liang, M. Hada, M. Ehara, K. Toyota, R. Fukuda, 
 J. Hasegawa, M. Ishida, T. Nakajima, Y. Honda, O. Kitao, H. Nakai, 
 T. Vreven, K. Throssell, J. A. Montgomery, Jr., J. E. Peralta, 
 F. Ogliaro, M. J. Bearpark, J. J. Heyd, E. N. Brothers, K. N. Kudin, 
 V. N. Staroverov, T. A. Keith, R. Kobayashi, J. Normand, 
 K. Raghavachari, A. P. Rendell, J. C. Burant, S. S. Iyengar, 
 J. Tomasi, M. Cossi, J. M. Millam, M. Klene, C. Adamo, R. Cammi, 
 J. W. Ochterski, R. L. Martin, K. Morokuma, O. Farkas, 
 J. B. Foresman, and D. J. Fox, Gaussian, Inc., Wallingford CT, 2019.
 
 ******************************************
 Gaussian 16:  AS64L-G16RevC.02  7-Dec-2021
                10-Apr-2024 
 ******************************************
 %nprocshared=128
 Will use up to  128 processors via shared memory.
 %mem=30GB
 %chk=bicyclo_xanthene_chelpg.chk
 ----------------------------------------------------------------------
 # wb97xd/genecp scrf=(solvent=toluene,pcm) nosymm pop=(chelpg) scfcyc=
 300
 ----------------------------------------------------------------------
 1/38=1,172=1/1;
 2/12=2,15=1,17=6,18=5,40=1/2;
 3/5=7,11=2,16=1,17=8,25=1,30=1,70=2201,72=13,74=-58/1,2,3;
 4//1;
 5/5=2,7=300,38=5,53=13/2;
 6/7=2,8=2,9=2,10=2,15=8,20=3,28=1/1,2;
 99/5=1,9=1/99;
 -----------------------
 bicyclo_xanthene_chelpg
 -----------------------
 Symbolic Z-matrix:
 Charge =  0 Multiplicity = 1
 C                    -1.98101   1.67668   1.19871 
 C                    -0.74878   1.72053   1.85261 
 C                     0.08303   2.82852   1.729 
 C                    -0.31961   3.92303   0.97504 
 C                    -1.56056   3.93737   0.33832 
 C                    -2.35079   2.80143   0.46641 
 H                    -0.42205   0.87154   2.44518 
 H                     1.04709   2.84208   2.2249 
 H                     0.33879   4.77937   0.89816 
 C                    -2.13355   5.13671  -0.40673 
 O                    -3.59625   2.73689  -0.12105 
 C                    -1.0328    6.05233  -0.94849 
 H                    -1.4639    6.92526  -1.44228 
 H                    -0.41427   6.43305  -0.13357 
 H                    -0.38888   5.52985  -1.66028 
 C                    -3.00862   5.94241   0.58296 
 H                    -2.39596   6.31532   1.40875 
 H                    -3.46875   6.79333   0.07254 
 H                    -3.8047    5.32136   1.00062 
 C                    -3.04377   4.61088  -1.51538 
 C                    -3.7942    3.46622  -1.26597 
 C                    -3.21975   5.25817  -2.73927 
 C                    -4.77679   2.99326  -2.15609 
 C                    -4.14211   4.78537  -3.65768 
 H                    -2.6383    6.13895  -2.97807 
 C                    -4.92779   3.67738  -3.3624 
 H                    -4.26978   5.29395  -4.60651 
 H                    -5.66396   3.34244  -4.08172 
 B                    -2.90421   0.41049   1.20366 
 N                    -5.52778   1.84972  -1.8227 
 C                    -6.37613   1.98032  -0.64397 
 H                    -7.25096   2.62029  -0.84096 
 H                    -6.73341   0.98966  -0.34993 
 H                    -5.81281   2.39669   0.18858 
 C                    -6.21683   1.18442  -2.90994 
 H                    -6.5662    0.21196  -2.55363 
 H                    -7.09371   1.74224  -3.27865 
 H                    -5.53238   1.01404  -3.7427 
 C                    -3.67898  -0.11843   2.46281 
 H                    -3.72662   0.61655   3.27317 
 C                    -5.12328  -0.49669   2.06992 
 H                    -5.63939  -0.93396   2.9338 
 H                    -5.65664   0.43315   1.83758 
 C                    -2.92003  -0.62175   0.02375 
 H                    -2.45873  -0.22855  -0.88785 
 C                    -5.24588  -1.4512    0.87272 
 H                    -5.04363  -2.47196   1.20287 
 H                    -6.28903  -1.45846   0.5362 
 C                    -4.34603  -1.0935   -0.32304 
 H                    -4.29765  -1.95225  -1.00515 
 H                    -4.80819  -0.27665  -0.88486 
 C                    -2.81431  -1.30901   2.97403 
 H                    -1.89376  -0.8935    3.40355 
 H                    -3.3349   -1.80442   3.80263 
 C                    -2.42975  -2.35062   1.90837 
 H                    -1.61979  -2.97349   2.30242 
 C                    -1.98157  -1.7389    0.57204 
 H                    -0.9747   -1.31661   0.6927 
 H                    -1.88761  -2.5301   -0.18103 
 H                    -3.26469  -3.03056   1.73461 
 
 Symmetry turned off by external request.
 Stoichiometry    C25H32BNO
 Framework group  C1[X(C25H32BNO)]
 Deg. of freedom   174
 Full point group                 C1      NOp   1
                          Input orientation:                          
 ---------------------------------------------------------------------
 Center     Atomic      Atomic             Coordinates (Angstroms)
 Number     Number       Type             X           Y           Z
 ---------------------------------------------------------------------
      1          6           0       -1.981008    1.676675    1.198710
      2          6           0       -0.748775    1.720526    1.852606
      3          6           0        0.083031    2.828516    1.729004
      4          6           0       -0.319605    3.923025    0.975041
      5          6           0       -1.560558    3.937371    0.338320
      6          6           0       -2.350786    2.801434    0.466414
      7          1           0       -0.422049    0.871544    2.445181
      8          1           0        1.047092    2.842083    2.224895
      9          1           0        0.338789    4.779370    0.898161
     10          6           0       -2.133552    5.136710   -0.406734
     11          8           0       -3.596249    2.736894   -0.121049
     12          6           0       -1.032802    6.052333   -0.948490
     13          1           0       -1.463903    6.925258   -1.442281
     14          1           0       -0.414274    6.433054   -0.133573
     15          1           0       -0.388881    5.529847   -1.660280
     16          6           0       -3.008622    5.942408    0.582963
     17          1           0       -2.395956    6.315323    1.408754
     18          1           0       -3.468745    6.793328    0.072540
     19          1           0       -3.804700    5.321355    1.000623
     20          6           0       -3.043770    4.610877   -1.515376
     21          6           0       -3.794202    3.466223   -1.265970
     22          6           0       -3.219752    5.258168   -2.739269
     23          6           0       -4.776794    2.993256   -2.156089
     24          6           0       -4.142110    4.785372   -3.657684
     25          1           0       -2.638298    6.138947   -2.978066
     26          6           0       -4.927792    3.677383   -3.362399
     27          1           0       -4.269780    5.293950   -4.606506
     28          1           0       -5.663960    3.342439   -4.081719
     29          5           0       -2.904209    0.410489    1.203658
     30          7           0       -5.527783    1.849719   -1.822702
     31          6           0       -6.376127    1.980316   -0.643971
     32          1           0       -7.250962    2.620290   -0.840962
     33          1           0       -6.733408    0.989656   -0.349932
     34          1           0       -5.812808    2.396689    0.188580
     35          6           0       -6.216832    1.184421   -2.909941
     36          1           0       -6.566203    0.211962   -2.553631
     37          1           0       -7.093709    1.742242   -3.278650
     38          1           0       -5.532384    1.014036   -3.742696
     39          6           0       -3.678977   -0.118432    2.462812
     40          1           0       -3.726619    0.616552    3.273167
     41          6           0       -5.123280   -0.496685    2.069924
     42          1           0       -5.639387   -0.933955    2.933796
     43          1           0       -5.656642    0.433148    1.837575
     44          6           0       -2.920027   -0.621745    0.023745
     45          1           0       -2.458728   -0.228551   -0.887851
     46          6           0       -5.245882   -1.451201    0.872719
     47          1           0       -5.043634   -2.471958    1.202867
     48          1           0       -6.289034   -1.458456    0.536203
     49          6           0       -4.346028   -1.093501   -0.323040
     50          1           0       -4.297646   -1.952250   -1.005150
     51          1           0       -4.808193   -0.276651   -0.884855
     52          6           0       -2.814305   -1.309009    2.974027
     53          1           0       -1.893760   -0.893499    3.403550
     54          1           0       -3.334895   -1.804419    3.802628
     55          6           0       -2.429750   -2.350624    1.908372
     56          1           0       -1.619790   -2.973491    2.302423
     57          6           0       -1.981574   -1.738904    0.572042
     58          1           0       -0.974702   -1.316608    0.692695
     59          1           0       -1.887606   -2.530097   -0.181026
     60          1           0       -3.264688   -3.030561    1.734608
 ---------------------------------------------------------------------
 Rotational constants (GHZ):           0.2657537           0.1622426           0.1142202
 General basis read from cards:  (5D, 7F)
 ======================================================================================================
                                       Pseudopotential Parameters
 ======================================================================================================
  Center     Atomic      Valence      Angular      Power
  Number     Number     Electrons     Momentum     of R      Exponent        Coefficient   SO-Coeffient
 ======================================================================================================
    1          6
                                   No pseudopotential on this center.
    2          6
                                   No pseudopotential on this center.
    3          6
                                   No pseudopotential on this center.
    4          6
                                   No pseudopotential on this center.
    5          6
                                   No pseudopotential on this center.
    6          6
                                   No pseudopotential on this center.
    7          1
                                   No pseudopotential on this center.
    8          1
                                   No pseudopotential on this center.
    9          1
                                   No pseudopotential on this center.
   10          6
                                   No pseudopotential on this center.
   11          8
                                   No pseudopotential on this center.
   12          6
                                   No pseudopotential on this center.
   13          1
                                   No pseudopotential on this center.
   14          1
                                   No pseudopotential on this center.
   15          1
                                   No pseudopotential on this center.
   16          6
                                   No pseudopotential on this center.
   17          1
                                   No pseudopotential on this center.
   18          1
                                   No pseudopotential on this center.
   19          1
                                   No pseudopotential on this center.
   20          6
                                   No pseudopotential on this center.
   21          6
                                   No pseudopotential on this center.
   22          6
                                   No pseudopotential on this center.
   23          6
                                   No pseudopotential on this center.
   24          6
                                   No pseudopotential on this center.
   25          1
                                   No pseudopotential on this center.
   26          6
                                   No pseudopotential on this center.
   27          1
                                   No pseudopotential on this center.
   28          1
                                   No pseudopotential on this center.
   29          5
                                   No pseudopotential on this center.
   30          7
                                   No pseudopotential on this center.
   31          6
                                   No pseudopotential on this center.
   32          1
                                   No pseudopotential on this center.
   33          1
                                   No pseudopotential on this center.
   34          1
                                   No pseudopotential on this center.
   35          6
                                   No pseudopotential on this center.
   36          1
                                   No pseudopotential on this center.
   37          1
                                   No pseudopotential on this center.
   38          1
                                   No pseudopotential on this center.
   39          6
                                   No pseudopotential on this center.
   40          1
                                   No pseudopotential on this center.
   41          6
                                   No pseudopotential on this center.
   42          1
                                   No pseudopotential on this center.
   43          1
                                   No pseudopotential on this center.
   44          6
                                   No pseudopotential on this center.
   45          1
                                   No pseudopotential on this center.
   46          6
                                   No pseudopotential on this center.
   47          1
                                   No pseudopotential on this center.
   48          1
                                   No pseudopotential on this center.
   49          6
                                   No pseudopotential on this center.
   50          1
                                   No pseudopotential on this center.
   51          1
                                   No pseudopotential on this center.
   52          6
                                   No pseudopotential on this center.
   53          1
                                   No pseudopotential on this center.
   54          1
                                   No pseudopotential on this center.
   55          6
                                   No pseudopotential on this center.
   56          1
                                   No pseudopotential on this center.
   57          6
                                   No pseudopotential on this center.
   58          1
                                   No pseudopotential on this center.
   59          1
                                   No pseudopotential on this center.
   60          1
                                   No pseudopotential on this center.
 ======================================================================================================
   840 basis functions,  1296 primitive gaussians,   868 cartesian basis functions
   101 alpha electrons      101 beta electrons
       nuclear repulsion energy      2754.6086794767 Hartrees.
 NAtoms=   60 NActive=   60 NUniq=   60 SFac= 1.00D+00 NAtFMM=   60 NAOKFM=T Big=T
 Integral buffers will be    131072 words long.
 Raffenetti 2 integral format.
 Two-electron integral symmetry is turned off.
 Nuclear repulsion after empirical dispersion term =     2754.5443339459 Hartrees.
 ------------------------------------------------------------------------------
 Polarizable Continuum Model (PCM)
 =================================
 Model                : PCM.
 Atomic radii         : UFF (Universal Force Field).
 Polarization charges : Total charges.
 Charge compensation  : None.
 Solution method      : On-the-fly selection.
 Cavity type          : Scaled VdW (van der Waals Surface) (Alpha=1.100).
 Cavity algorithm     : GePol (No added spheres)
                        Default sphere list used, NSphG=   60.
                        Lebedev-Laikov grids with approx.  5.0 points / Ang**2.
                        Smoothing algorithm: York/Karplus (Gamma=1.0000).
                        Polarization charges: spherical gaussians, with
                                              point-specific exponents (IZeta= 3).
                        Self-potential: point-specific (ISelfS= 7).
                        Self-field    : sphere-specific E.n sum rule (ISelfD= 2).
 Solvent              : Toluene, Eps=   2.374100 Eps(inf)=   2.238315
 ------------------------------------------------------------------------------
 One-electron integrals computed using PRISM.
   1 Symmetry operations used in ECPInt.
 ECPInt:  NShTT=   53956 NPrTT=  173766 LenC2=   47662 LenP2D=  105360.
 LDataN:  DoStor=T MaxTD1= 4 Len=   56
 Number of processors reduced to  55 by ecpmxn.
 NBasis=   840 RedAO= T EigKep=  1.25D-06  NBF=   840
 NBsUse=   831 1.00D-06 EigRej=  9.33D-07 NBFU=   831
 ExpMin= 3.15D-02 ExpMax= 8.59D+03 ExpMxC= 1.30D+03 IAcc=3 IRadAn=         5 AccDes= 0.00D+00
 Harris functional with IExCor= 4639 and IRadAn=       5 diagonalized for initial guess.
 HarFok:  IExCor= 4639 AccDes= 0.00D+00 IRadAn=         5 IDoV= 1 UseB2=F ITyADJ=14
 ICtDFT=  3500011 ScaDFX=  1.000000  1.000000  1.000000  1.000000
 FoFCou: FMM=F IPFlag=           0 FMFlag=      100000 FMFlg1=        2001
         NFxFlg=           0 DoJE=T BraDBF=F KetDBF=T FulRan=T
         wScrn=  0.000000 ICntrl=       500 IOpCl=  0 I1Cent=   200000004 NGrid=           0
         NMat0=    1 NMatS0=      1 NMatT0=    0 NMatD0=    1 NMtDS0=    0 NMtDT0=    0
 Symmetry not used in FoFCou.
 Requested convergence on RMS density matrix=1.00D-08 within 300 cycles.
 Requested convergence on MAX density matrix=1.00D-06.
 Requested convergence on             energy=1.00D-06.
 No special actions if energy rises.
 Inv3:  Mode=1 IEnd=    37616043.
 Iteration    1 A*A^-1 deviation from unit magnitude is 3.33D-15 for   3517.
 Iteration    1 A*A^-1 deviation from orthogonality  is 2.21D-15 for   2249    862.
 Iteration    1 A^-1*A deviation from unit magnitude is 3.33D-15 for   3517.
 Iteration    1 A^-1*A deviation from orthogonality  is 4.31D-14 for   3215   3191.
 Error on total polarization charges =  0.01250
 SCF Done:  E(RwB97XD) =  -1126.71243223     A.U. after   16 cycles
            NFock= 16  Conv=0.55D-08     -V/T= 2.0045

 **********************************************************************

            Population analysis using the SCF Density.

 **********************************************************************

 Alpha  occ. eigenvalues --  -19.29478 -14.44155 -10.34696 -10.34627 -10.32585
 Alpha  occ. eigenvalues --  -10.31674 -10.30457 -10.30137 -10.29765 -10.29631
 Alpha  occ. eigenvalues --  -10.28842 -10.28758 -10.28485 -10.28429 -10.28355
 Alpha  occ. eigenvalues --  -10.28341 -10.27930 -10.27752 -10.27546 -10.27464
 Alpha  occ. eigenvalues --  -10.27210 -10.27203 -10.27201 -10.26813 -10.26473
 Alpha  occ. eigenvalues --  -10.25588 -10.25234  -6.83545  -1.19705  -1.04677
 Alpha  occ. eigenvalues --   -0.97054  -0.96284  -0.92820  -0.91825  -0.86836
 Alpha  occ. eigenvalues --   -0.86767  -0.85389  -0.84931  -0.83690  -0.82398
 Alpha  occ. eigenvalues --   -0.81110  -0.79072  -0.77895  -0.76502  -0.75628
 Alpha  occ. eigenvalues --   -0.73527  -0.72873  -0.68779  -0.67075  -0.66960
 Alpha  occ. eigenvalues --   -0.65938  -0.64824  -0.64209  -0.63211  -0.60067
 Alpha  occ. eigenvalues --   -0.58605  -0.57974  -0.56760  -0.56260  -0.56020
 Alpha  occ. eigenvalues --   -0.55617  -0.55096  -0.54328  -0.53386  -0.52946
 Alpha  occ. eigenvalues --   -0.51960  -0.51466  -0.51000  -0.50804  -0.50120
 Alpha  occ. eigenvalues --   -0.49458  -0.49042  -0.48532  -0.48052  -0.47605
 Alpha  occ. eigenvalues --   -0.47265  -0.46958  -0.46738  -0.46102  -0.45568
 Alpha  occ. eigenvalues --   -0.45219  -0.44786  -0.44360  -0.43797  -0.43488
 Alpha  occ. eigenvalues --   -0.42689  -0.42224  -0.41872  -0.41550  -0.41334
 Alpha  occ. eigenvalues --   -0.40763  -0.39970  -0.39511  -0.36537  -0.35563
 Alpha  occ. eigenvalues --   -0.35028  -0.34611  -0.32706  -0.31358  -0.29889
 Alpha  occ. eigenvalues --   -0.27496
 Alpha virt. eigenvalues --    0.03703   0.04057   0.04434   0.04450   0.04949
 Alpha virt. eigenvalues --    0.05399   0.05459   0.05625   0.05876   0.05976
 Alpha virt. eigenvalues --    0.06318   0.06603   0.06945   0.07058   0.07190
 Alpha virt. eigenvalues --    0.07690   0.07895   0.07961   0.08230   0.08646
 Alpha virt. eigenvalues --    0.08740   0.09019   0.09391   0.10049   0.10156
 Alpha virt. eigenvalues --    0.10705   0.10856   0.11094   0.11393   0.11505
 Alpha virt. eigenvalues --    0.12076   0.12234   0.12586   0.13192   0.13562
 Alpha virt. eigenvalues --    0.13700   0.14065   0.14423   0.14610   0.14764
 Alpha virt. eigenvalues --    0.15197   0.15563   0.15774   0.15915   0.16212
 Alpha virt. eigenvalues --    0.16372   0.16659   0.16880   0.17239   0.17453
 Alpha virt. eigenvalues --    0.17571   0.17696   0.18076   0.18179   0.18481
 Alpha virt. eigenvalues --    0.18600   0.18738   0.18822   0.19011   0.19197
 Alpha virt. eigenvalues --    0.19273   0.19322   0.19653   0.19795   0.19949
 Alpha virt. eigenvalues --    0.20133   0.20354   0.20551   0.20795   0.20861
 Alpha virt. eigenvalues --    0.21232   0.21291   0.21577   0.21982   0.22167
 Alpha virt. eigenvalues --    0.22256   0.22400   0.22503   0.22684   0.22944
 Alpha virt. eigenvalues --    0.23054   0.23210   0.23531   0.23564   0.23843
 Alpha virt. eigenvalues --    0.24012   0.24103   0.24274   0.24567   0.24834
 Alpha virt. eigenvalues --    0.24894   0.25225   0.25439   0.25583   0.25819
 Alpha virt. eigenvalues --    0.26018   0.26166   0.26196   0.26516   0.26890
 Alpha virt. eigenvalues --    0.26972   0.27186   0.27273   0.27519   0.27946
 Alpha virt. eigenvalues --    0.28138   0.28322   0.28728   0.28866   0.29035
 Alpha virt. eigenvalues --    0.29148   0.29252   0.29660   0.29773   0.30121
 Alpha virt. eigenvalues --    0.30273   0.30586   0.30762   0.30898   0.31221
 Alpha virt. eigenvalues --    0.31397   0.31650   0.31932   0.32240   0.32535
 Alpha virt. eigenvalues --    0.32743   0.32887   0.33100   0.33191   0.33579
 Alpha virt. eigenvalues --    0.33849   0.34205   0.34494   0.34711   0.35060
 Alpha virt. eigenvalues --    0.35161   0.35374   0.35518   0.35897   0.36111
 Alpha virt. eigenvalues --    0.36477   0.36541   0.37056   0.37117   0.37174
 Alpha virt. eigenvalues --    0.37336   0.37675   0.37769   0.37983   0.38306
 Alpha virt. eigenvalues --    0.38623   0.38720   0.38792   0.39411   0.39727
 Alpha virt. eigenvalues --    0.39843   0.40006   0.40119   0.40370   0.40744
 Alpha virt. eigenvalues --    0.40878   0.41324   0.41459   0.41660   0.42058
 Alpha virt. eigenvalues --    0.42513   0.42577   0.42960   0.43209   0.43488
 Alpha virt. eigenvalues --    0.43652   0.43906   0.44265   0.44358   0.44750
 Alpha virt. eigenvalues --    0.45012   0.45485   0.45540   0.45912   0.46366
 Alpha virt. eigenvalues --    0.46937   0.47306   0.47677   0.48099   0.48594
 Alpha virt. eigenvalues --    0.48957   0.49042   0.49604   0.49868   0.50271
 Alpha virt. eigenvalues --    0.50532   0.50877   0.51699   0.51985   0.52558
 Alpha virt. eigenvalues --    0.53201   0.54383   0.54476   0.54726   0.56083
 Alpha virt. eigenvalues --    0.56944   0.57213   0.58357   0.58771   0.59534
 Alpha virt. eigenvalues --    0.60064   0.60354   0.61345   0.61358   0.61625
 Alpha virt. eigenvalues --    0.62229   0.62519   0.63059   0.63628   0.64351
 Alpha virt. eigenvalues --    0.64832   0.65326   0.65419   0.66257   0.66646
 Alpha virt. eigenvalues --    0.67001   0.67558   0.67926   0.68322   0.68887
 Alpha virt. eigenvalues --    0.69186   0.69297   0.70060   0.70685   0.70864
 Alpha virt. eigenvalues --    0.71475   0.71700   0.72399   0.72555   0.73010
 Alpha virt. eigenvalues --    0.73211   0.73907   0.74230   0.74622   0.74843
 Alpha virt. eigenvalues --    0.75047   0.75464   0.76111   0.76175   0.76670
 Alpha virt. eigenvalues --    0.77006   0.77497   0.77574   0.77919   0.78090
 Alpha virt. eigenvalues --    0.78699   0.78937   0.79269   0.79767   0.80175
 Alpha virt. eigenvalues --    0.80247   0.80718   0.80921   0.81603   0.81864
 Alpha virt. eigenvalues --    0.82238   0.82343   0.82616   0.83087   0.83505
 Alpha virt. eigenvalues --    0.83849   0.84100   0.84225   0.84637   0.85072
 Alpha virt. eigenvalues --    0.85426   0.85645   0.86028   0.86535   0.86777
 Alpha virt. eigenvalues --    0.86951   0.87622   0.87867   0.88151   0.88512
 Alpha virt. eigenvalues --    0.89122   0.89238   0.89474   0.89869   0.90257
 Alpha virt. eigenvalues --    0.90728   0.90847   0.91183   0.91470   0.92088
 Alpha virt. eigenvalues --    0.92171   0.92508   0.93308   0.93994   0.94370
 Alpha virt. eigenvalues --    0.94888   0.95287   0.95345   0.95768   0.96378
 Alpha virt. eigenvalues --    0.97441   0.98140   0.98525   0.99008   0.99459
 Alpha virt. eigenvalues --    1.00233   1.00679   1.00937   1.01467   1.02128
 Alpha virt. eigenvalues --    1.02683   1.03399   1.03813   1.04260   1.05197
 Alpha virt. eigenvalues --    1.05666   1.05820   1.06727   1.07556   1.08136
 Alpha virt. eigenvalues --    1.08760   1.09297   1.10371   1.10696   1.10906
 Alpha virt. eigenvalues --    1.11478   1.12652   1.12752   1.13980   1.14843
 Alpha virt. eigenvalues --    1.15041   1.15979   1.16362   1.17993   1.18484
 Alpha virt. eigenvalues --    1.19029   1.19896   1.20175   1.20544   1.20827
 Alpha virt. eigenvalues --    1.22569   1.22972   1.24564   1.25346   1.26465
 Alpha virt. eigenvalues --    1.27671   1.28065   1.29785   1.30284   1.30585
 Alpha virt. eigenvalues --    1.31771   1.32050   1.34288   1.35014   1.36124
 Alpha virt. eigenvalues --    1.36484   1.36901   1.37826   1.38663   1.39364
 Alpha virt. eigenvalues --    1.40532   1.40769   1.41959   1.42404   1.43116
 Alpha virt. eigenvalues --    1.44628   1.46369   1.46849   1.48777   1.50361
 Alpha virt. eigenvalues --    1.51097   1.52133   1.52821   1.53832   1.53959
 Alpha virt. eigenvalues --    1.55964   1.56575   1.57141   1.57493   1.58119
 Alpha virt. eigenvalues --    1.59066   1.59376   1.59628   1.60532   1.60848
 Alpha virt. eigenvalues --    1.61748   1.62156   1.62665   1.63462   1.64057
 Alpha virt. eigenvalues --    1.64280   1.64654   1.65076   1.65650   1.65993
 Alpha virt. eigenvalues --    1.66251   1.66616   1.67481   1.67639   1.68286
 Alpha virt. eigenvalues --    1.68654   1.69270   1.69634   1.70278   1.70498
 Alpha virt. eigenvalues --    1.71193   1.71544   1.72466   1.73457   1.73619
 Alpha virt. eigenvalues --    1.74014   1.74120   1.74437   1.74988   1.75149
 Alpha virt. eigenvalues --    1.75618   1.76338   1.76361   1.77123   1.77269
 Alpha virt. eigenvalues --    1.77989   1.78319   1.79013   1.79912   1.80172
 Alpha virt. eigenvalues --    1.80948   1.81627   1.81648   1.82260   1.82398
 Alpha virt. eigenvalues --    1.82783   1.83499   1.83910   1.84131   1.84805
 Alpha virt. eigenvalues --    1.84953   1.85299   1.85674   1.86207   1.86564
 Alpha virt. eigenvalues --    1.87008   1.87487   1.87882   1.88874   1.88998
 Alpha virt. eigenvalues --    1.90122   1.90904   1.91093   1.91503   1.92597
 Alpha virt. eigenvalues --    1.92844   1.93378   1.94368   1.94757   1.95330
 Alpha virt. eigenvalues --    1.95928   1.96436   1.96621   1.97267   1.99109
 Alpha virt. eigenvalues --    1.99297   2.00312   2.00426   2.00761   2.01450
 Alpha virt. eigenvalues --    2.01636   2.03001   2.03601   2.04089   2.04719
 Alpha virt. eigenvalues --    2.05510   2.05797   2.06246   2.06529   2.07947
 Alpha virt. eigenvalues --    2.08258   2.09123   2.09991   2.10678   2.11314
 Alpha virt. eigenvalues --    2.11488   2.11913   2.12640   2.13611   2.13832
 Alpha virt. eigenvalues --    2.15034   2.15945   2.16853   2.17524   2.18152
 Alpha virt. eigenvalues --    2.19148   2.20193   2.20969   2.21656   2.22467
 Alpha virt. eigenvalues --    2.23448   2.23724   2.24449   2.26146   2.27059
 Alpha virt. eigenvalues --    2.27111   2.27933   2.28385   2.29109   2.31158
 Alpha virt. eigenvalues --    2.32648   2.33132   2.33216   2.33640   2.34758
 Alpha virt. eigenvalues --    2.36142   2.36860   2.37864   2.38761   2.38877
 Alpha virt. eigenvalues --    2.40147   2.40947   2.41921   2.42035   2.42689
 Alpha virt. eigenvalues --    2.43805   2.44964   2.45539   2.46043   2.47618
 Alpha virt. eigenvalues --    2.48254   2.49726   2.50149   2.50613   2.51515
 Alpha virt. eigenvalues --    2.53623   2.53957   2.55026   2.55770   2.56714
 Alpha virt. eigenvalues --    2.56936   2.57377   2.57951   2.59328   2.60282
 Alpha virt. eigenvalues --    2.61425   2.61955   2.63203   2.63660   2.64529
 Alpha virt. eigenvalues --    2.64756   2.65235   2.65729   2.66508   2.67257
 Alpha virt. eigenvalues --    2.68176   2.68440   2.68920   2.70200   2.71649
 Alpha virt. eigenvalues --    2.72222   2.72733   2.72911   2.74385   2.74636
 Alpha virt. eigenvalues --    2.75346   2.77040   2.77434   2.78643   2.79349
 Alpha virt. eigenvalues --    2.79640   2.80390   2.80773   2.81112   2.82081
 Alpha virt. eigenvalues --    2.82769   2.83124   2.83772   2.84343   2.84891
 Alpha virt. eigenvalues --    2.85792   2.86464   2.87126   2.87545   2.88053
 Alpha virt. eigenvalues --    2.88644   2.89322   2.89513   2.90074   2.91117
 Alpha virt. eigenvalues --    2.91535   2.91956   2.92870   2.92962   2.93863
 Alpha virt. eigenvalues --    2.94261   2.94633   2.95455   2.96226   2.96570
 Alpha virt. eigenvalues --    2.97325   2.97945   2.99127   2.99679   3.01153
 Alpha virt. eigenvalues --    3.01488   3.02207   3.02729   3.03391   3.04631
 Alpha virt. eigenvalues --    3.05564   3.05963   3.06715   3.07679   3.08414
 Alpha virt. eigenvalues --    3.09640   3.10065   3.10475   3.12209   3.12831
 Alpha virt. eigenvalues --    3.13573   3.14257   3.17567   3.17950   3.19499
 Alpha virt. eigenvalues --    3.20189   3.21070   3.22437   3.23005   3.23792
 Alpha virt. eigenvalues --    3.26191   3.27082   3.28494   3.29228   3.30512
 Alpha virt. eigenvalues --    3.32428   3.34031   3.35849   3.37031   3.38011
 Alpha virt. eigenvalues --    3.39206   3.40592   3.41197   3.42081   3.46712
 Alpha virt. eigenvalues --    3.48365   3.50703   3.52816   3.53697   3.55844
 Alpha virt. eigenvalues --    3.57263   3.58026   3.58766   3.61044   3.63213
 Alpha virt. eigenvalues --    3.66612   3.68519   3.69976   3.70384   3.75272
 Alpha virt. eigenvalues --    3.81405   3.83541   3.84733   3.85989   3.87391
 Alpha virt. eigenvalues --    3.88959   3.90261   3.90998   3.91368   3.92196
 Alpha virt. eigenvalues --    3.92405   3.93814   3.94917   3.95333   3.96014
 Alpha virt. eigenvalues --    3.96474   3.99940   4.03348   4.04397   4.06531
 Alpha virt. eigenvalues --    4.12222   4.13895   4.15994   4.16700   4.18594
 Alpha virt. eigenvalues --    4.21471   4.23413   4.26854   4.27318   4.28981
 Alpha virt. eigenvalues --    4.31360   4.34706   4.36341   4.40571   4.45104
 Alpha virt. eigenvalues --    4.46358   4.47352   4.51515   4.53559   4.58186
 Alpha virt. eigenvalues --    4.95897   4.97728   4.99834   5.14064   5.28259
 Alpha virt. eigenvalues --    5.66719   6.05940  14.97062  23.73957  23.79014
 Alpha virt. eigenvalues --   23.95457  23.98381  24.05903  24.08404  24.09730
 Alpha virt. eigenvalues --   24.10234  24.10922  24.11389  24.11973  24.12312
 Alpha virt. eigenvalues --   24.12636  24.13059  24.13553  24.16078  24.16970
 Alpha virt. eigenvalues --   24.17966  24.19964  24.21685  24.23290  24.25076
 Alpha virt. eigenvalues --   24.27098  24.33793  24.34629  35.75736  50.16372
          Condensed to atoms (all electrons):
 Mulliken charges:
               1
     1  C    0.462116
     2  C   -0.487000
     3  C   -0.547405
     4  C   -0.167930
     5  C    0.219580
     6  C   -0.043397
     7  H    0.206113
     8  H    0.241461
     9  H    0.168295
    10  C   -0.218627
    11  O    0.012261
    12  C   -0.488349
    13  H    0.167752
    14  H    0.166275
    15  H    0.206480
    16  C   -0.771261
    17  H    0.188833
    18  H    0.188107
    19  H    0.174265
    20  C    0.253646
    21  C   -0.034924
    22  C   -0.062354
    23  C    0.190724
    24  C   -0.719197
    25  H    0.154926
    26  C   -0.340403
    27  H    0.244866
    28  H    0.175476
    29  B   -0.269327
    30  N    0.290652
    31  C   -0.432265
    32  H    0.187132
    33  H    0.179847
    34  H    0.196009
    35  C   -0.372944
    36  H    0.161996
    37  H    0.152785
    38  H    0.187793
    39  C    0.238195
    40  H    0.262030
    41  C   -0.568916
    42  H    0.209042
    43  H    0.116923
    44  C    0.429039
    45  H    0.275137
    46  C   -0.250013
    47  H    0.134309
    48  H    0.193094
    49  C   -0.603851
    50  H    0.196737
    51  H    0.127728
    52  C   -0.596509
    53  H    0.141915
    54  H    0.195938
    55  C   -0.221079
    56  H    0.213182
    57  C   -0.826221
    58  H    0.192474
    59  H    0.187699
    60  H    0.131141
 Sum of Mulliken charges =  -0.00000
 Mulliken charges with hydrogens summed into heavy atoms:
               1
     1  C    0.462116
     2  C   -0.280888
     3  C   -0.305944
     4  C    0.000365
     5  C    0.219580
     6  C   -0.043397
    10  C   -0.218627
    11  O    0.012261
    12  C    0.052158
    16  C   -0.220055
    20  C    0.253646
    21  C   -0.034924
    22  C    0.092572
    23  C    0.190724
    24  C   -0.474331
    26  C   -0.164927
    29  B   -0.269327
    30  N    0.290652
    31  C    0.130723
    35  C    0.129631
    39  C    0.500225
    41  C   -0.242950
    44  C    0.704176
    46  C    0.077389
    49  C   -0.279386
    52  C   -0.258656
    55  C    0.123244
    57  C   -0.446048
 Electronic spatial extent (au):  <R**2>=          20645.9324
 Charge=             -0.0000 electrons
 Dipole moment (field-independent basis, Debye):
    X=             -0.5633    Y=              0.3612    Z=             -0.3519  Tot=              0.7560
 Quadrupole moment (field-independent basis, Debye-Ang):
   XX=           -158.6018   YY=           -159.9407   ZZ=           -166.3797
   XY=              2.5915   XZ=              7.6024   YZ=             -3.6090
 Traceless Quadrupole moment (field-independent basis, Debye-Ang):
   XX=              3.0390   YY=              1.7000   ZZ=             -4.7390
   XY=              2.5915   XZ=              7.6024   YZ=             -3.6090
 Octapole moment (field-independent basis, Debye-Ang**2):
  XXX=           1572.6558  YYY=           -938.7077  ZZZ=              8.2844  XYY=            566.1543
  XXY=           -343.6402  XXZ=            -30.4202  XZZ=            528.0482  YZZ=           -331.7104
  YYZ=             -6.6960  XYZ=             16.5803
 Hexadecapole moment (field-independent basis, Debye-Ang**3):
 XXXX=         -13649.5787 YYYY=         -10441.1148 ZZZZ=          -3586.1344 XXXY=           2810.2280
 XXXZ=           -549.3246 YYYX=           2843.1768 YYYZ=           1137.0598 ZZZX=           -657.1512
 ZZZY=           1136.6334 XXYY=          -4336.8917 XXZZ=          -2797.0315 YYZZ=          -2368.7729
 XXYZ=            376.9952 YYXZ=           -232.3479 ZZXY=            865.8043
 N-N= 2.754544333946D+03 E-N=-8.125810001407D+03  KE= 1.121624896150D+03
 Breneman (CHELPG) radii used.
 Generate Potential Derived Charges using the Breneman model, NDens= 1.
 Grid spacing= 0.300 Box extension= 2.800
 NStep X,Y,Z=   47     52     48   Total possible points=      117312
 Number of Points to Fit=   27009

 **********************************************************************

            Electrostatic Properties Using The SCF Density.

 **********************************************************************

       Atomic Center    1 is at  -1.981008  1.676675  1.198710
       Atomic Center    2 is at  -0.748775  1.720526  1.852606
       Atomic Center    3 is at   0.083031  2.828516  1.729004
       Atomic Center    4 is at  -0.319605  3.923025  0.975041
       Atomic Center    5 is at  -1.560558  3.937371  0.338320
       Atomic Center    6 is at  -2.350786  2.801434  0.466414
       Atomic Center    7 is at  -0.422049  0.871544  2.445181
       Atomic Center    8 is at   1.047092  2.842083  2.224895
       Atomic Center    9 is at   0.338789  4.779370  0.898161
       Atomic Center   10 is at  -2.133552  5.136710 -0.406734
       Atomic Center   11 is at  -3.596249  2.736894 -0.121049
       Atomic Center   12 is at  -1.032802  6.052333 -0.948490
       Atomic Center   13 is at  -1.463903  6.925258 -1.442281
       Atomic Center   14 is at  -0.414274  6.433054 -0.133573
       Atomic Center   15 is at  -0.388881  5.529847 -1.660280
       Atomic Center   16 is at  -3.008622  5.942408  0.582963
       Atomic Center   17 is at  -2.395956  6.315323  1.408754
       Atomic Center   18 is at  -3.468745  6.793328  0.072540
       Atomic Center   19 is at  -3.804700  5.321355  1.000623
       Atomic Center   20 is at  -3.043770  4.610877 -1.515376
       Atomic Center   21 is at  -3.794202  3.466223 -1.265970
       Atomic Center   22 is at  -3.219752  5.258168 -2.739269
       Atomic Center   23 is at  -4.776794  2.993256 -2.156089
       Atomic Center   24 is at  -4.142110  4.785372 -3.657684
       Atomic Center   25 is at  -2.638298  6.138947 -2.978066
       Atomic Center   26 is at  -4.927792  3.677383 -3.362399
       Atomic Center   27 is at  -4.269780  5.293950 -4.606506
       Atomic Center   28 is at  -5.663960  3.342439 -4.081719
       Atomic Center   29 is at  -2.904209  0.410489  1.203658
       Atomic Center   30 is at  -5.527783  1.849719 -1.822702
       Atomic Center   31 is at  -6.376127  1.980316 -0.643971
       Atomic Center   32 is at  -7.250962  2.620290 -0.840962
       Atomic Center   33 is at  -6.733408  0.989656 -0.349932
       Atomic Center   34 is at  -5.812808  2.396689  0.188580
       Atomic Center   35 is at  -6.216832  1.184421 -2.909941
       Atomic Center   36 is at  -6.566203  0.211962 -2.553631
       Atomic Center   37 is at  -7.093709  1.742242 -3.278650
       Atomic Center   38 is at  -5.532384  1.014036 -3.742696
       Atomic Center   39 is at  -3.678977 -0.118432  2.462812
       Atomic Center   40 is at  -3.726619  0.616552  3.273167
       Atomic Center   41 is at  -5.123280 -0.496685  2.069924
       Atomic Center   42 is at  -5.639387 -0.933955  2.933796
       Atomic Center   43 is at  -5.656642  0.433148  1.837575
       Atomic Center   44 is at  -2.920027 -0.621745  0.023745
       Atomic Center   45 is at  -2.458728 -0.228551 -0.887851
       Atomic Center   46 is at  -5.245882 -1.451201  0.872719
       Atomic Center   47 is at  -5.043634 -2.471958  1.202867
       Atomic Center   48 is at  -6.289034 -1.458456  0.536203
       Atomic Center   49 is at  -4.346028 -1.093501 -0.323040
       Atomic Center   50 is at  -4.297646 -1.952250 -1.005150
       Atomic Center   51 is at  -4.808193 -0.276651 -0.884855
       Atomic Center   52 is at  -2.814305 -1.309009  2.974027
       Atomic Center   53 is at  -1.893760 -0.893499  3.403550
       Atomic Center   54 is at  -3.334895 -1.804419  3.802628
       Atomic Center   55 is at  -2.429750 -2.350624  1.908372
       Atomic Center   56 is at  -1.619790 -2.973491  2.302423
       Atomic Center   57 is at  -1.981574 -1.738904  0.572042
       Atomic Center   58 is at  -0.974702 -1.316608  0.692695
       Atomic Center   59 is at  -1.887606 -2.530097 -0.181026
       Atomic Center   60 is at  -3.264688 -3.030561  1.734608
   27009 points will be used for fitting atomic charges
 Fitting point charges to electrostatic potential
 Charges from ESP fit, RMS=   0.00349 RRMS=   0.37418:
 ESP charges:
               1
     1  C   -0.256135
     2  C   -0.092533
     3  C   -0.185135
     4  C   -0.103167
     5  C   -0.119139
     6  C    0.309165
     7  H    0.115783
     8  H    0.114064
     9  H    0.110690
    10  C    0.341085
    11  O   -0.361984
    12  C   -0.294388
    13  H    0.088613
    14  H    0.092224
    15  H    0.037068
    16  C   -0.206120
    17  H    0.040778
    18  H    0.040016
    19  H    0.051551
    20  C   -0.084033
    21  C    0.146903
    22  C   -0.133460
    23  C    0.116766
    24  C   -0.194687
    25  H    0.118562
    26  C   -0.161865
    27  H    0.125482
    28  H    0.126333
    29  B    0.442550
    30  N   -0.094840
    31  C   -0.104000
    32  H    0.010088
    33  H    0.097677
    34  H    0.112446
    35  C   -0.095454
    36  H    0.071302
    37  H    0.045898
    38  H    0.051751
    39  C   -0.090663
    40  H   -0.074763
    41  C    0.256924
    42  H   -0.042957
    43  H   -0.097792
    44  C   -0.176737
    45  H   -0.049273
    46  C   -0.344644
    47  H    0.052602
    48  H    0.058085
    49  C    0.380696
    50  H   -0.063094
    51  H   -0.177992
    52  C    0.154448
    53  H   -0.047961
    54  H   -0.036732
    55  C   -0.087722
    56  H    0.002812
    57  C    0.154639
    58  H   -0.052407
    59  H   -0.031749
    60  H   -0.005575
 Sum of ESP charges =  -0.00000
 ESP charges with hydrogens summed into heavy atoms:
               1
     1  C   -0.256135
     2  C    0.023250
     3  C   -0.071071
     4  C    0.007523
     5  C   -0.119139
     6  C    0.309165
    10  C    0.341085
    11  O   -0.361984
    12  C   -0.076483
    16  C   -0.073775
    20  C   -0.084033
    21  C    0.146903
    22  C   -0.014897
    23  C    0.116766
    24  C   -0.069205
    26  C   -0.035533
    29  B    0.442550
    30  N   -0.094840
    31  C    0.116210
    35  C    0.073497
    39  C   -0.165426
    41  C    0.116174
    44  C   -0.226010
    46  C   -0.233957
    49  C    0.139609
    52  C    0.069756
    55  C   -0.090485
    57  C    0.070483
 Charge=  -0.00000 Dipole=    -0.6033     0.4248    -0.4047 Tot=     0.8415
 -----------------------------------------------------------------

              Electrostatic Properties (Atomic Units)

 -----------------------------------------------------------------
    Center     Electric         -------- Electric Field --------
               Potential          X             Y             Z
 -----------------------------------------------------------------
    1 Atom    -14.796230
    2 Atom    -14.777825
    3 Atom    -14.782525
    4 Atom    -14.778122
    5 Atom    -14.770182
    6 Atom    -14.720511
    7 Atom     -1.110543
    8 Atom     -1.111268
    9 Atom     -1.106410
   10 Atom    -14.738662
   11 Atom    -22.323781
   12 Atom    -14.780877
   13 Atom     -1.116121
   14 Atom     -1.115886
   15 Atom     -1.120216
   16 Atom    -14.784119
   17 Atom     -1.122629
   18 Atom     -1.122766
   19 Atom     -1.125330
   20 Atom    -14.768361
   21 Atom    -14.718466
   22 Atom    -14.781716
   23 Atom    -14.738201
   24 Atom    -14.780932
   25 Atom     -1.108235
   26 Atom    -14.780181
   27 Atom     -1.110180
   28 Atom     -1.103805
   29 Atom    -11.482706
   30 Atom    -18.382974
   31 Atom    -14.754503
   32 Atom     -1.122349
   33 Atom     -1.115695
   34 Atom     -1.119418
   35 Atom    -14.749714
   36 Atom     -1.111989
   37 Atom     -1.116445
   38 Atom     -1.112168
   39 Atom    -14.801235
   40 Atom     -1.146846
   41 Atom    -14.784310
   42 Atom     -1.139571
   43 Atom     -1.139664
   44 Atom    -14.806024
   45 Atom     -1.152515
   46 Atom    -14.787790
   47 Atom     -1.142663
   48 Atom     -1.138111
   49 Atom    -14.792427
   50 Atom     -1.144850
   51 Atom     -1.149656
   52 Atom    -14.776677
   53 Atom     -1.132649
   54 Atom     -1.132769
   55 Atom    -14.783518
   56 Atom     -1.134227
   57 Atom    -14.779340
   58 Atom     -1.135415
   59 Atom     -1.134799
   60 Atom     -1.138245
 -----------------------------------------------------------------
 Unable to Open any file for archive entry.
 1\1\GINC-IRENE4576\SP\RwB97XD\GenECP\C25H32B1N1O1\PENASFRA\10-Apr-2024
 \0\\# wb97xd/genecp scrf=(solvent=toluene,pcm) nosymm pop=(chelpg) scf
 cyc=300\\bicyclo_xanthene_chelpg\\0,1\C,0,-1.981008,1.676675,1.19871\C
 ,0,-0.748775,1.720526,1.852606\C,0,0.083031,2.828516,1.729004\C,0,-0.3
 19605,3.923025,0.975041\C,0,-1.560558,3.937371,0.33832\C,0,-2.350786,2
 .801434,0.466414\H,0,-0.422049,0.871544,2.445181\H,0,1.047092,2.842083
 ,2.224895\H,0,0.338789,4.77937,0.898161\C,0,-2.133552,5.13671,-0.40673
 4\O,0,-3.596249,2.736894,-0.121049\C,0,-1.032802,6.052333,-0.94849\H,0
 ,-1.463903,6.925258,-1.442281\H,0,-0.414274,6.433054,-0.133573\H,0,-0.
 388881,5.529847,-1.66028\C,0,-3.008622,5.942408,0.582963\H,0,-2.395956
 ,6.315323,1.408754\H,0,-3.468745,6.793328,0.07254\H,0,-3.8047,5.321355
 ,1.000623\C,0,-3.04377,4.610877,-1.515376\C,0,-3.794202,3.466223,-1.26
 597\C,0,-3.219752,5.258168,-2.739269\C,0,-4.776794,2.993256,-2.156089\
 C,0,-4.14211,4.785372,-3.657684\H,0,-2.638298,6.138947,-2.978066\C,0,-
 4.927792,3.677383,-3.362399\H,0,-4.26978,5.29395,-4.606506\H,0,-5.6639
 6,3.342439,-4.081719\B,0,-2.904209,0.410489,1.203658\N,0,-5.527783,1.8
 49719,-1.822702\C,0,-6.376127,1.980316,-0.643971\H,0,-7.250962,2.62029
 ,-0.840962\H,0,-6.733408,0.989656,-0.349932\H,0,-5.812808,2.396689,0.1
 8858\C,0,-6.216832,1.184421,-2.909941\H,0,-6.566203,0.211962,-2.553631
 \H,0,-7.093709,1.742242,-3.27865\H,0,-5.532384,1.014036,-3.742696\C,0,
 -3.678977,-0.118432,2.462812\H,0,-3.726619,0.616552,3.273167\C,0,-5.12
 328,-0.496685,2.069924\H,0,-5.639387,-0.933955,2.933796\H,0,-5.656642,
 0.433148,1.837575\C,0,-2.920027,-0.621745,0.023745\H,0,-2.458728,-0.22
 8551,-0.887851\C,0,-5.245882,-1.451201,0.872719\H,0,-5.043634,-2.47195
 8,1.202867\H,0,-6.289034,-1.458456,0.536203\C,0,-4.346028,-1.093501,-0
 .32304\H,0,-4.297646,-1.95225,-1.00515\H,0,-4.808193,-0.276651,-0.8848
 55\C,0,-2.814305,-1.309009,2.974027\H,0,-1.89376,-0.893499,3.40355\H,0
 ,-3.334895,-1.804419,3.802628\C,0,-2.42975,-2.350624,1.908372\H,0,-1.6
 1979,-2.973491,2.302423\C,0,-1.981574,-1.738904,0.572042\H,0,-0.974702
 ,-1.316608,0.692695\H,0,-1.887606,-2.530097,-0.181026\H,0,-3.264688,-3
 .030561,1.734608\\Version=AS64L-G16RevC.02\HF=-1126.7124322\RMSD=5.526
 e-09\Dipole=-0.2216194,0.1420957,-0.1384454\Quadrupole=2.2594026,1.263
 934,-3.5233366,1.926731,5.6522334,-2.6831845\PG=C01 [X(C25H32B1N1O1)]\
 \@
 The archive entry for this job was punched.


 WHEN A MATHEMATICIAN ENGAGED IN INVESTIGATING
 PHYSICAL ACTIONS AND RESULTS HAS ARRIVED AT HIS
 CONCLUSIONS, MAY THEY NOT BE EXPRESSED IN COMMON
 LANGUAGE AS FULLY, CLEARLY, AND DEFINITELY AS IN
 MATHEMATICAL FORMULAE?
           - LETTER FROM M. FARADAY TO J.C. MAXWELL, 1857.
 Job cpu time:       0 days  5 hours 51 minutes 32.3 seconds.
 Elapsed time:       0 days  0 hours  3 minutes 34.0 seconds.
 File lengths (MBytes):  RWF=    580 Int=      0 D2E=      0 Chk=     43 Scr=      1
 Normal termination of Gaussian 16 at Wed Apr 10 17:15:19 2024.
