 Entering Gaussian System, Link 0=/ccc/products/gaussian-16-C.02/system/default/g16/g16
 Input=bicyclo_biphenylene_chelpg.gjf
 Output=bicyclo_biphenylene_chelpg.log
 Initial command:
 /ccc/products/gaussian-16-C.02/system/default/g16/l1.exe "/ccc/scratch/cont003/gen7343/penasfra/flp/b-n_flp/bicyclo_biphenylene/reac/Gau-566020.inp" -scrdir="/ccc/scratch/cont003/gen7343/penasfra/flp/b-n_flp/bicyclo_biphenylene/reac/"
 Entering Link 1 = /ccc/products/gaussian-16-C.02/system/default/g16/l1.exe PID=    566069.
  
 Copyright (c) 1988-2021, Gaussian, Inc.  All Rights Reserved.
  
 This is part of the Gaussian(R) 16 program.  It is based on
 the Gaussian(R) 09 system (copyright 2009, Gaussian, Inc.),
 the Gaussian(R) 03 system (copyright 2003, Gaussian, Inc.),
 the Gaussian(R) 98 system (copyright 1998, Gaussian, Inc.),
 the Gaussian(R) 94 system (copyright 1995, Gaussian, Inc.),
 the Gaussian 92(TM) system (copyright 1992, Gaussian, Inc.),
 the Gaussian 90(TM) system (copyright 1990, Gaussian, Inc.),
 the Gaussian 88(TM) system (copyright 1988, Gaussian, Inc.),
 the Gaussian 86(TM) system (copyright 1986, Carnegie Mellon
 University), and the Gaussian 82(TM) system (copyright 1983,
 Carnegie Mellon University). Gaussian is a federally registered
 trademark of Gaussian, Inc.
  
 This software contains proprietary and confidential information,
 including trade secrets, belonging to Gaussian, Inc.
  
 This software is provided under written license and may be
 used, copied, transmitted, or stored only in accord with that
 written license.
  
 The following legend is applicable only to US Government
 contracts under FAR:
  
                    RESTRICTED RIGHTS LEGEND
  
 Use, reproduction and disclosure by the US Government is
 subject to restrictions as set forth in subparagraphs (a)
 and (c) of the Commercial Computer Software - Restricted
 Rights clause in FAR 52.227-19.
  
 Gaussian, Inc.
 340 Quinnipiac St., Bldg. 40, Wallingford CT 06492
  
  
 ---------------------------------------------------------------
 Warning -- This program may not be used in any manner that
 competes with the business of Gaussian, Inc. or will provide
 assistance to any competitor of Gaussian, Inc.  The licensee
 of this program is prohibited from giving any competitor of
 Gaussian, Inc. access to this program.  By using this program,
 the user acknowledges that Gaussian, Inc. is engaged in the
 business of creating and licensing software in the field of
 computational chemistry and represents and warrants to the
 licensee that it is not a competitor of Gaussian, Inc. and that
 it will not use this program in any manner prohibited above.
 ---------------------------------------------------------------
  

 Cite this work as:
 Gaussian 16, Revision C.02,
 M. J. Frisch, G. W. Trucks, H. B. Schlegel, G. E. Scuseria, 
 M. A. Robb, J. R. Cheeseman, G. Scalmani, V. Barone, 
 G. A. Petersson, H. Nakatsuji, X. Li, M. Caricato, A. V. Marenich, 
 J. Bloino, B. G. Janesko, R. Gomperts, B. Mennucci, H. P. Hratchian, 
 J. V. Ortiz, A. F. Izmaylov, J. L. Sonnenberg, D. Williams-Young, 
 F. Ding, F. Lipparini, F. Egidi, J. Goings, B. Peng, A. Petrone, 
 T. Henderson, D. Ranasinghe, V. G. Zakrzewski, J. Gao, N. Rega, 
 G. Zheng, W. Liang, M. Hada, M. Ehara, K. Toyota, R. Fukuda, 
 J. Hasegawa, M. Ishida, T. Nakajima, Y. Honda, O. Kitao, H. Nakai, 
 T. Vreven, K. Throssell, J. A. Montgomery, Jr., J. E. Peralta, 
 F. Ogliaro, M. J. Bearpark, J. J. Heyd, E. N. Brothers, K. N. Kudin, 
 V. N. Staroverov, T. A. Keith, R. Kobayashi, J. Normand, 
 K. Raghavachari, A. P. Rendell, J. C. Burant, S. S. Iyengar, 
 J. Tomasi, M. Cossi, J. M. Millam, M. Klene, C. Adamo, R. Cammi, 
 J. W. Ochterski, R. L. Martin, K. Morokuma, O. Farkas, 
 J. B. Foresman, and D. J. Fox, Gaussian, Inc., Wallingford CT, 2019.
 
 ******************************************
 Gaussian 16:  AS64L-G16RevC.02  7-Dec-2021
                11-Apr-2024 
 ******************************************
 %nprocshared=128
 Will use up to  128 processors via shared memory.
 %mem=30GB
 %chk=bicyclo_biphenylene_chelpg.chk
 ----------------------------------------------------------------------
 # wb97xd/genecp scrf=(solvent=toluene,pcm) nosymm pop=(chelpg) scfcyc=
 300
 ----------------------------------------------------------------------
 1/38=1,172=1/1;
 2/12=2,15=1,17=6,18=5,40=1/2;
 3/5=7,11=2,16=1,17=8,25=1,30=1,70=2201,72=13,74=-58/1,2,3;
 4//1;
 5/5=2,7=300,38=5,53=13/2;
 6/7=2,8=2,9=2,10=2,15=8,20=3,28=1/1,2;
 99/5=1,9=1/99;
 --------------------------
 bicyclo_biphenylene_chelpg
 --------------------------
 Symbolic Z-matrix:
 Charge =  0 Multiplicity = 1
 C                     1.87666   2.49139  -0.05078 
 C                     2.0086    2.5192   -1.46181 
 C                     1.68617   3.99133  -1.45914 
 C                     1.48368   3.94593  -0.0619 
 C                     1.57377   5.1366   -2.19729 
 C                     1.04221   5.03787   0.66134 
 C                     1.20741   6.28156  -1.4573 
 H                     1.74444   5.18436  -3.26536 
 C                     0.94053   6.23749  -0.09996 
 H                     1.10122   7.23119  -1.97078 
 H                     0.62223   7.15105   0.3857 
 C                     2.34695   1.41452  -2.18601 
 H                     2.46033   1.41862  -3.26379 
 C                     2.55094   0.22854  -1.43378 
 H                     2.80676  -0.68806  -1.95402 
 C                     2.45177   0.21789  -0.0575 
 C                     2.14378   1.38082   0.719 
 H                     2.64502  -0.71428   0.46451 
 B                     2.33568   1.37327   2.26784 
 N                     0.69221   4.9541    2.01167 
 C                     0.35902   6.18636   2.6985 
 H                    -0.59201   6.62802   2.35983 
 H                     0.27565   5.97728   3.76661 
 H                     1.15482   6.92088   2.56456 
 C                    -0.21205   3.85778   2.32911 
 H                    -0.36938   3.81678   3.40762 
 H                    -1.1898    3.98033   1.83952 
 H                     0.20703   2.90107   2.01417 
 C                     3.00672   2.57135   3.02838 
 H                     2.97621   3.51149   2.46924 
 C                     2.25011   0.08728   3.16728 
 H                     1.72648  -0.74489   2.68313 
 C                     3.72797  -0.3601    3.37649 
 H                     3.76448  -1.16535   4.12078 
 H                     4.07536  -0.80076   2.43421 
 C                     4.49032   2.08283   3.03365 
 H                     4.82902   1.9772    1.9948 
 H                     5.1189    2.86171   3.4809 
 C                     2.44374   2.83143   4.43949 
 H                     3.14109   3.46289   5.00478 
 H                     1.53663   3.43024   4.31897 
 C                     1.49623   0.42765   4.47095 
 H                     1.43746  -0.46174   5.11049 
 H                     0.45995   0.67887   4.20758 
 C                     4.71225   0.75619   3.77542 
 H                     5.73257   0.40873   3.58223 
 H                     4.66227   0.93436   4.85064 
 C                     2.10223   1.58435   5.27639 
 H                     2.99237   1.22609   5.79689 
 H                     1.40024   1.87128   6.06674 
 
                          Input orientation:                          
 ---------------------------------------------------------------------
 Center     Atomic      Atomic             Coordinates (Angstroms)
 Number     Number       Type             X           Y           Z
 ---------------------------------------------------------------------
      1          6           0        1.876664    2.491392   -0.050779
      2          6           0        2.008603    2.519195   -1.461814
      3          6           0        1.686170    3.991329   -1.459136
      4          6           0        1.483680    3.945925   -0.061895
      5          6           0        1.573767    5.136600   -2.197287
      6          6           0        1.042214    5.037870    0.661341
      7          6           0        1.207408    6.281559   -1.457298
      8          1           0        1.744435    5.184364   -3.265363
      9          6           0        0.940526    6.237493   -0.099959
     10          1           0        1.101217    7.231189   -1.970775
     11          1           0        0.622234    7.151049    0.385704
     12          6           0        2.346948    1.414515   -2.186006
     13          1           0        2.460329    1.418615   -3.263786
     14          6           0        2.550941    0.228535   -1.433783
     15          1           0        2.806758   -0.688057   -1.954016
     16          6           0        2.451774    0.217891   -0.057504
     17          6           0        2.143775    1.380820    0.718995
     18          1           0        2.645015   -0.714283    0.464506
     19          5           0        2.335680    1.373274    2.267841
     20          7           0        0.692210    4.954096    2.011666
     21          6           0        0.359021    6.186361    2.698503
     22          1           0       -0.592007    6.628021    2.359833
     23          1           0        0.275646    5.977275    3.766606
     24          1           0        1.154822    6.920878    2.564555
     25          6           0       -0.212045    3.857780    2.329111
     26          1           0       -0.369384    3.816775    3.407624
     27          1           0       -1.189796    3.980329    1.839515
     28          1           0        0.207030    2.901069    2.014170
     29          6           0        3.006719    2.571346    3.028381
     30          1           0        2.976213    3.511492    2.469239
     31          6           0        2.250107    0.087275    3.167283
     32          1           0        1.726476   -0.744892    2.683126
     33          6           0        3.727970   -0.360097    3.376486
     34          1           0        3.764477   -1.165345    4.120776
     35          1           0        4.075365   -0.800762    2.434209
     36          6           0        4.490316    2.082831    3.033649
     37          1           0        4.829018    1.977199    1.994795
     38          1           0        5.118896    2.861710    3.480895
     39          6           0        2.443740    2.831434    4.439492
     40          1           0        3.141090    3.462894    5.004776
     41          1           0        1.536625    3.430243    4.318966
     42          6           0        1.496226    0.427645    4.470951
     43          1           0        1.437464   -0.461743    5.110492
     44          1           0        0.459953    0.678871    4.207581
     45          6           0        4.712250    0.756186    3.775420
     46          1           0        5.732573    0.408727    3.582225
     47          1           0        4.662269    0.934356    4.850640
     48          6           0        2.102228    1.584349    5.276392
     49          1           0        2.992372    1.226091    5.796891
     50          1           0        1.400235    1.871281    6.066736
 ---------------------------------------------------------------------
                    Distance matrix (angstroms):
                    1          2          3          4          5
     1  C    0.000000
     2  C    1.417463   0.000000
     3  C    2.066293   1.507033   0.000000
     4  C    1.506727   2.066610   1.412567   0.000000
     5  C    3.419995   2.753327   1.367168   2.446573   0.000000
     6  C    2.772719   3.432990   2.450786   1.382138   2.909304
     7  C    4.097751   3.846728   2.339737   2.734714   1.411642
     8  H    4.195609   3.228885   2.165452   3.444406   1.082680
     9  C    3.861612   4.101363   2.729212   2.355366   2.451886
    10  H    5.172367   4.825482   3.331762   3.818777   2.159147
    11  H    4.845257   5.175849   3.810410   3.348918   3.411050
    12  C    2.437217   1.363543   2.757705   3.415423   3.801559
    13  H    3.437285   2.159267   3.236501   4.194430   3.968227
    14  C    2.736398   2.354154   3.860970   4.103670   5.062303
    15  H    3.820508   3.341524   4.837073   5.177301   5.958698
    16  C    2.345123   2.732121   4.097506   3.851683   5.435372
    17  C    1.377414   2.463757   3.430512   2.761391   4.789102
    18  H    3.336500   3.817212   5.173255   4.831494   6.516559
    19  B    2.614743   3.915411   4.600699   3.573808   5.889015
    20  N    3.423671   4.441475   3.736488   2.437722   4.304153
    21  C    4.849184   5.785971   4.885228   3.728835   5.152317
    22  H    5.386751   6.184708   5.169793   4.167359   5.261393
    23  H    5.411753   6.503678   5.765582   4.499239   6.161158
    24  H    5.194360   6.026226   5.005465   3.982051   5.102382
    25  C    3.448710   4.592842   4.239324   2.932603   5.031181
    26  H    4.331504   5.572249   5.285936   3.935491   6.077236
    27  H    3.897861   4.823219   4.376345   3.280856   5.026929
    28  H    2.686918   3.933695   3.929424   2.651717   4.960034
    29  C    3.280952   4.600088   4.888559   3.709302   5.995122
    30  H    2.932593   4.168225   4.162521   2.970358   5.136565
    31  C    4.034249   5.234606   6.079755   5.089615   7.398090
    32  H    4.239142   5.283407   6.292197   5.440391   7.644194
    33  C    4.827470   5.886909   6.818145   5.949885   8.119188
    34  H    5.859815   6.915507   7.876932   6.987264   9.188669
    35  H    4.674155   5.520201   6.620463   5.956375   7.934798
    36  C    4.063471   5.153494   5.629451   4.700359   6.722682
    37  H    3.628383   4.494068   5.085652   4.392851   6.176733
    38  H    4.808526   5.849924   6.120748   5.190537   7.069994
    39  C    4.538693   5.925559   6.059132   4.735640   7.079370
    40  H    5.301059   6.632487   6.646668   5.352708   7.558274
    41  H    4.482381   5.871132   5.807206   4.411425   6.736066
    42  C    4.984960   6.311483   6.921117   5.738044   8.163680
    43  H    5.962602   7.239295   7.940511   6.795827   9.206718
    44  H    4.840034   6.158502   6.677400   5.472667   7.882529
    45  C    5.068657   6.151953   6.857397   5.943323   8.044335
    46  H    5.692473   6.615463   7.390787   6.621516   8.547000
    47  H    5.848749   7.028566   7.616792   6.580728   8.767609
    48  C    5.408545   6.803391   7.164775   5.870004   8.291781
    49  H    6.086135   7.438328   7.874175   6.633176   9.011737
    50  H    6.167294   7.580829   7.824009   6.470798   8.887435
                    6          7          8          9         10
     6  C    0.000000
     7  C    2.462252   0.000000
     8  H    3.991689   2.182048   0.000000
     9  C    1.424434   1.384029   3.431491   0.000000
    10  H    3.426684   1.084773   2.505829   2.124431   0.000000
    11  H    2.172069   2.120165   4.296216   1.082480   2.406001
    12  C    4.789407   5.051503   3.967341   5.439736   5.952467
    13  H    5.524190   5.336800   3.833193   5.961643   6.107788
    14  C    5.458526   6.200382   5.344659   6.362397   7.171278
    15  H    6.537580   7.167998   6.110114   7.408346   8.100840
    16  C    5.073046   6.346333   5.954540   6.206551   7.393981
    17  C    3.819787   5.443370   5.522819   5.070085   6.522929
    18  H    5.974528   7.396070   7.036832   7.179909   8.452481
    19  B    4.205135   6.264257   6.744652   5.586910   7.335185
    20  N    1.397461   3.749840   5.385837   2.483491   4.605679
    21  C    2.436352   4.242582   6.204117   2.858698   4.841970
    22  H    2.843261   4.234196   6.259867   2.924337   4.688815
    23  H    3.333584   5.315067   7.227353   3.931934   5.930549
    24  H    2.679668   4.072689   6.111552   2.759089   4.546250
    25  C    2.397339   4.714493   6.073366   3.590520   5.620815
    26  H    3.320505   5.677050   7.132131   4.458574   6.538201
    27  H    2.736486   4.680942   6.009924   3.659866   5.507735
    28  H    2.663381   4.947682   5.954034   4.017373   5.952251
    29  C    3.942829   6.092989   6.930544   5.243691   7.094832
    30  H    3.055925   5.120511   6.099298   4.263318   6.088143
    31  C    5.678657   7.800200   8.222831   7.086258   8.874407
    32  H    6.164103   8.172121   8.398864   7.557578   9.255680
    33  C    6.612363   8.592456   8.876352   7.961389   9.649904
    34  H    7.606463   9.649347   9.947584   8.977266  10.709889
    35  H    6.814154   8.574863   8.587205   8.110873   9.631286
    36  C    5.123427   6.969606   7.539027   6.299343   7.939511
    37  H    5.048335   6.600039   6.889835   6.136650   7.564830
    38  H    5.413399   7.168044   7.892636   6.455788   8.059454
    39  C    4.594242   6.942911   8.086414   5.870903   7.889977
    40  H    5.074570   7.310431   8.562085   6.212826   8.186540
    41  H    4.025808   6.450086   7.787308   5.269050   7.361903
    42  C    5.997785   8.336418   9.085072   7.413255   9.377637
    43  H    7.084978   9.415992  10.105825   8.501500  10.461291
    44  H    5.649400   8.002478   8.820105   7.048697   9.028631
    45  C    6.442008   8.378246   8.831156   7.699947   9.379978
    46  H    7.208328   8.964601   9.252103   8.396232   9.941391
    47  H    6.891578   8.962072   9.614875   8.153715   9.942982
    48  C    5.860813   8.258757   9.276298   7.204613   9.241767
    49  H    6.686303   9.020372   9.967433   8.006064   9.998715
    50  H    6.274851   8.723464   9.908737   7.569892   9.665382
                   11         12         13         14         15
    11  H    0.000000
    12  C    6.518907   0.000000
    13  H    7.039756   1.083735   0.000000
    14  C    7.412938   1.419155   2.184814   0.000000
    15  H    8.467468   2.164729   2.504711   1.084539   0.000000
    16  C    7.184172   2.444058   3.423749   1.379888   2.131552
    17  C    5.976764   2.912292   3.995520   2.475479   3.444530
    18  H    8.121656   3.412600   4.299247   2.121617   2.424066
    19  B    6.313558   4.454052   5.533217   3.880565   4.721766
    20  N    2.734091   5.734740   6.592137   6.136524   7.213310
    21  C    2.519711   7.112018   7.918067   7.574694   8.654188
    22  H    2.375947   7.515501   8.251046   8.076080   9.147999
    23  H    3.595604   7.780916   8.659136   8.078925   9.141045
    24  H    2.254777   7.369466   8.120887   7.919805   9.002348
    25  C    3.913882   5.736224   6.661202   5.913111   6.937073
    26  H    4.607894   6.666184   7.633227   6.696491   7.689511
    27  H    3.930710   5.941109   6.777129   6.227644   7.221991
    28  H    4.570189   4.942729   5.927212   4.952246   5.948690
    29  C    5.800275   5.381764   6.420179   5.060376   5.957178
    30  H    4.809232   5.144375   6.124855   5.117836   6.101648
    31  C    7.764281   5.516217   6.570792   4.613054   5.209482
    32  H    8.297191   5.362506   6.370641   4.310017   4.761652
    33  C    8.660698   5.999816   6.990275   4.987040   5.419450
    34  H    9.642970   6.959926   7.931545   5.853947   6.168316
    35  H    8.907962   5.407519   6.324644   4.283069   4.569309
    36  C    6.903659   5.682031   6.649791   5.211289   5.948865
    37  H    6.859660   4.894526   5.794426   4.472427   5.175542
    38  H    6.942522   6.472390   7.391970   6.138572   6.890942
    39  C    6.197593   6.776006   7.831783   6.425102   7.307225
    40  H    6.425181   7.518900   8.544684   7.229412   8.109683
    41  H    5.490998   6.858166   7.899241   6.661373   7.610778
    42  C    7.915634   6.783267   7.857332   6.001496   6.651503
    43  H    8.996823   7.588570   8.643525   6.674118   7.199546
    44  H    7.518123   6.706704   7.769817   6.033243   6.733592
    45  C    8.313404   6.447220   7.420268   5.664404   6.208315
    46  H    9.043905   6.763620   7.654758   5.942692   6.357145
    47  H    8.654756   7.423318   8.421814   6.667073   7.237298
    48  C    7.556280   7.468341   8.549289   6.860468   7.611767
    49  H    8.366817   8.011162   9.078326   7.312498   7.985924
    50  H    7.794572   8.319414   9.401454   7.764053   8.535864
                   16         17         18         19         20
    16  C    0.000000
    17  C    1.431858   0.000000
    18  H    1.085719   2.169208   0.000000
    19  B    2.599157   1.560708   2.775896   0.000000
    20  N    5.459777   4.067719   6.191742   3.948279   0.000000
    21  C    6.899118   5.495182   7.604959   5.220963   1.449564
    22  H    7.496525   6.140844   8.244999   6.015994   2.138331
    23  H    7.247748   5.822820   7.829095   5.261831   2.073701
    24  H    7.313502   5.922530   8.057702   5.679646   2.094738
    25  C    5.103004   3.778583   5.704674   3.559133   1.456145
    26  H    5.737422   4.413453   6.187005   3.819316   2.090258
    27  H    5.569170   4.373295   6.215771   4.405585   2.125983
    28  H    4.065729   2.782017   4.627742   2.632424   2.109580
    29  C    3.920383   2.737752   4.183257   1.569742   3.473926
    30  H    4.184169   2.880290   4.688904   2.241165   2.739918
    31  C    3.233726   2.771043   2.846656   1.571659   5.239126
    32  H    2.994004   2.924141   2.401442   2.242815   5.830869
    33  C    3.708778   3.550032   3.126958   2.484379   6.270504
    34  H    4.592881   4.547719   3.850320   3.452451   7.164826
    35  H    3.143618   3.381168   2.435798   2.789375   6.688996
    36  C    4.145948   3.369970   4.222497   2.394241   4.869725
    37  H    3.599776   3.032138   3.788895   2.579925   5.096605
    38  H    5.159805   4.321166   5.292109   3.381306   5.111972
    39  C    5.201312   4.004542   5.330397   2.618010   3.669862
    40  H    6.052428   4.868017   6.189422   3.536384   4.144804
    41  H    5.505469   4.186712   5.767364   3.012760   2.891159
    42  C    4.632923   3.924925   4.321495   2.540195   5.213759
    43  H    5.310265   4.814474   4.806989   3.500678   6.284062
    44  H    4.729778   3.936778   4.552580   2.786241   4.811812
    45  C    4.482278   4.040911   4.171078   2.881263   6.074043
    46  H    4.903844   4.692816   4.529276   3.767869   6.966512
    47  H    5.430422   4.859283   5.101519   3.503786   6.322931
    48  C    5.517231   4.562129   5.360277   3.024968   4.899161
    49  H    5.965120   5.150639   5.685071   3.592645   5.789360
    50  H    6.430066   5.421415   6.294410   3.943941   5.142824
                   21         22         23         24         25
    21  C    0.000000
    22  H    1.101914   0.000000
    23  H    1.091564   1.776317   0.000000
    24  H    1.091218   1.783000   1.763027   0.000000
    25  C    2.425872   2.796346   2.607009   3.362488   0.000000
    26  H    2.578442   3.008410   2.283132   3.559414   1.090700
    27  H    2.829005   2.763757   3.138311   3.830110   1.100327
    28  H    3.359249   3.827285   3.541014   4.166545   1.090921
    29  C    4.493045   5.463918   4.427650   4.750062   3.536147
    30  H    3.749291   4.738873   3.880246   3.866583   3.210069
    31  C    6.402719   7.177113   6.240976   6.947018   4.580549
    32  H    7.064874   7.735614   6.961779   7.687970   5.006773
    33  C    7.393618   8.278259   7.227241   7.764852   5.866106
    34  H    8.226030   9.100353   7.957035   8.638236   6.652411
    35  H    7.918393   8.773637   7.883840   8.256530   6.332057
    36  C    5.832571   6.851481   5.785098   5.895105   5.075334
    37  H    6.180058   7.151986   6.314517   6.185815   5.390795
    38  H    5.858485   6.932265   5.765886   5.747209   5.544159
    39  C    4.316553   5.287231   3.879397   4.679770   3.544050
    40  H    4.525050   5.563251   4.008235   4.675210   4.307973
    41  H    3.407174   4.312199   2.895262   3.925336   2.683311
    42  C    6.131690   6.874751   5.725759   6.775912   4.389931
    43  H    7.153881   7.870809   6.679581   7.814395   5.395854
    44  H    5.711388   6.317688   5.319917   6.491920   3.753091
    45  C    7.042525   8.038500   6.851518   7.219759   5.996697
    46  H    7.939589   8.954003   7.798768   8.024934   6.986039
    47  H    7.122724   8.138142   6.771161   7.305259   6.217994
    48  C    5.555429   6.419022   4.991358   6.060543   4.383014
    49  H    6.413955   7.337710   5.837500   6.801116   5.405513
    50  H    5.572166   6.351121   4.838852   6.150116   4.529400
                   26         27         28         29         30
    26  H    0.000000
    27  H    1.777299   0.000000
    28  H    1.764224   1.773818   0.000000
    29  C    3.618424   4.583598   2.995931   0.000000
    30  H    3.488092   4.239339   2.871947   1.094278   0.000000
    31  C    4.563843   5.362068   3.663505   2.600455   3.569280
    32  H    5.072113   5.616408   4.006152   3.571506   4.441215
    33  C    5.851114   6.736913   4.988800   3.038871   4.046905
    34  H    6.512980   7.498462   5.799047   3.966155   5.022125
    35  H    6.482668   7.136835   5.370661   3.586943   4.450269
    36  C    5.173307   6.106564   4.478324   1.561965   2.156882
    37  H    5.692408   6.345295   4.713458   2.177633   2.451946
    38  H    5.571242   6.614003   5.126330   2.179535   2.456981
    39  C    3.154253   4.613288   3.299986   1.541371   2.151256
    40  H    3.872926   5.389173   4.227065   2.172338   2.541357
    41  H    2.147748   3.726076   2.712920   2.136467   2.345316
    42  C    4.012152   5.173078   3.716938   2.993000   3.963247
    43  H    4.946734   6.110138   4.733887   3.999672   5.013039
    44  H    3.342779   4.385092   3.132600   3.384965   4.168590
    45  C    5.943524   6.998355   5.291458   2.600329   3.508795
    46  H    6.991363   7.982016   6.261165   3.523343   4.296907
    47  H    5.975631   7.251999   5.635839   2.956554   3.893005
    48  C    3.819016   5.328252   3.995950   2.616452   3.515372
    49  H    4.870487   6.382569   4.987250   3.078078   4.036903
    50  H    3.739970   5.387554   4.348275   3.507490   4.256288
                   31         32         33         34         35
    31  C    0.000000
    32  H    1.095947   0.000000
    33  C    1.558200   2.152857   0.000000
    34  H    2.184381   2.529242   1.097144   0.000000
    35  H    2.158141   2.362702   1.096702   1.753306   0.000000
    36  C    3.003105   3.969596   2.581977   3.501333   2.974327
    37  H    3.405484   4.184417   2.929903   3.940638   2.911725
    38  H    4.003223   5.015229   3.510786   4.296635   3.949457
    39  C    3.030910   4.048382   3.600708   4.221394   4.458274
    40  H    3.945255   5.009656   4.196548   4.752964   5.065515
    41  H    3.607058   4.488181   4.478497   5.110972   5.281942
    42  C    1.543936   2.150390   2.607503   2.793779   3.508455
    43  H    2.176665   2.460855   2.874635   2.624802   3.773055
    44  H    2.153336   2.440317   3.528471   3.785307   4.290148
    45  C    2.622865   3.515848   1.540793   2.170213   2.151408
    46  H    3.521800   4.264743   2.156815   2.577041   2.350988
    47  H    3.061007   4.017072   2.172937   2.397389   3.032199
    48  C    2.590645   3.505935   3.167578   3.414577   4.202384
    49  H    2.960185   3.896511   2.985876   3.020674   4.072915
    50  H    3.508816   4.289477   4.199386   4.312482   5.243223
                   36         37         38         39         40
    36  C    0.000000
    37  H    1.097768   0.000000
    38  H    1.096264   1.753534   0.000000
    39  C    2.593313   3.520769   2.841880   0.000000
    40  H    2.758682   3.757177   2.568142   1.097536   0.000000
    41  H    3.491683   4.284035   3.722668   1.093598   1.745196
    42  C    3.710802   4.431700   4.475335   2.583984   3.493320
    43  H    4.484199   5.211396   5.220524   3.508254   4.279754
    44  H    4.426403   5.066637   5.196019   2.936447   3.946492
    45  C    1.536055   2.162206   2.164564   3.145439   3.362459
    46  H    2.155635   2.407582   2.530611   4.173828   4.250573
    47  H    2.156390   3.044861   2.408195   2.947850   2.954869
    48  C    3.313811   4.284693   3.735739   1.540212   2.163779
    49  H    3.257813   4.288749   3.544177   2.172707   2.377572
    50  H    4.335086   5.324329   4.636374   2.158407   2.586806
                   41         42         43         44         45
    41  H    0.000000
    42  C    3.006714   0.000000
    43  H    3.972896   1.097031   0.000000
    44  H    2.956633   1.098335   1.752648   0.000000
    45  C    4.186958   3.306738   3.740320   4.274900   0.000000
    46  H    5.222866   4.328606   4.641258   5.316443   1.095039
    47  H    4.035069   3.228738   3.523632   4.258903   1.091027
    48  C    2.154970   1.534255   2.157760   2.158545   3.122657
    49  H    3.026838   2.152693   2.395343   3.039490   2.695392
    50  H    2.345989   2.154026   2.521664   2.400506   4.178877
                   46         47         48         49         50
    46  H    0.000000
    47  H    1.740894   0.000000
    48  C    4.175128   2.675363   0.000000
    49  H    3.616840   1.941406   1.091615   0.000000
    50  H    5.203942   3.605216   1.095339   1.738961   0.000000
 Symmetry turned off by external request.
 Stoichiometry    C22H26BN
 Framework group  C1[X(C22H26BN)]
 Deg. of freedom   144
 Full point group                 C1      NOp   1
 Rotational constants (GHZ):           0.3636178           0.2086530           0.1514970
 General basis read from cards:  (5D, 7F)
 ======================================================================================================
                                       Pseudopotential Parameters
 ======================================================================================================
  Center     Atomic      Valence      Angular      Power
  Number     Number     Electrons     Momentum     of R      Exponent        Coefficient   SO-Coeffient
 ======================================================================================================
    1          6
                                   No pseudopotential on this center.
    2          6
                                   No pseudopotential on this center.
    3          6
                                   No pseudopotential on this center.
    4          6
                                   No pseudopotential on this center.
    5          6
                                   No pseudopotential on this center.
    6          6
                                   No pseudopotential on this center.
    7          6
                                   No pseudopotential on this center.
    8          1
                                   No pseudopotential on this center.
    9          6
                                   No pseudopotential on this center.
   10          1
                                   No pseudopotential on this center.
   11          1
                                   No pseudopotential on this center.
   12          6
                                   No pseudopotential on this center.
   13          1
                                   No pseudopotential on this center.
   14          6
                                   No pseudopotential on this center.
   15          1
                                   No pseudopotential on this center.
   16          6
                                   No pseudopotential on this center.
   17          6
                                   No pseudopotential on this center.
   18          1
                                   No pseudopotential on this center.
   19          5
                                   No pseudopotential on this center.
   20          7
                                   No pseudopotential on this center.
   21          6
                                   No pseudopotential on this center.
   22          1
                                   No pseudopotential on this center.
   23          1
                                   No pseudopotential on this center.
   24          1
                                   No pseudopotential on this center.
   25          6
                                   No pseudopotential on this center.
   26          1
                                   No pseudopotential on this center.
   27          1
                                   No pseudopotential on this center.
   28          1
                                   No pseudopotential on this center.
   29          6
                                   No pseudopotential on this center.
   30          1
                                   No pseudopotential on this center.
   31          6
                                   No pseudopotential on this center.
   32          1
                                   No pseudopotential on this center.
   33          6
                                   No pseudopotential on this center.
   34          1
                                   No pseudopotential on this center.
   35          1
                                   No pseudopotential on this center.
   36          6
                                   No pseudopotential on this center.
   37          1
                                   No pseudopotential on this center.
   38          1
                                   No pseudopotential on this center.
   39          6
                                   No pseudopotential on this center.
   40          1
                                   No pseudopotential on this center.
   41          1
                                   No pseudopotential on this center.
   42          6
                                   No pseudopotential on this center.
   43          1
                                   No pseudopotential on this center.
   44          1
                                   No pseudopotential on this center.
   45          6
                                   No pseudopotential on this center.
   46          1
                                   No pseudopotential on this center.
   47          1
                                   No pseudopotential on this center.
   48          6
                                   No pseudopotential on this center.
   49          1
                                   No pseudopotential on this center.
   50          1
                                   No pseudopotential on this center.
 ======================================================================================================
   710 basis functions,  1098 primitive gaussians,   734 cartesian basis functions
    85 alpha electrons       85 beta electrons
       nuclear repulsion energy      2048.2064654645 Hartrees.
 NAtoms=   50 NActive=   50 NUniq=   50 SFac= 1.00D+00 NAtFMM=   60 NAOKFM=F Big=F
 Integral buffers will be    131072 words long.
 Raffenetti 2 integral format.
 Two-electron integral symmetry is turned off.
 Nuclear repulsion after empirical dispersion term =     2048.1549648616 Hartrees.
 ------------------------------------------------------------------------------
 Polarizable Continuum Model (PCM)
 =================================
 Model                : PCM.
 Atomic radii         : UFF (Universal Force Field).
 Polarization charges : Total charges.
 Charge compensation  : None.
 Solution method      : On-the-fly selection.
 Cavity type          : Scaled VdW (van der Waals Surface) (Alpha=1.100).
 Cavity algorithm     : GePol (No added spheres)
                        Default sphere list used, NSphG=   50.
                        Lebedev-Laikov grids with approx.  5.0 points / Ang**2.
                        Smoothing algorithm: York/Karplus (Gamma=1.0000).
                        Polarization charges: spherical gaussians, with
                                              point-specific exponents (IZeta= 3).
                        Self-potential: point-specific (ISelfS= 7).
                        Self-field    : sphere-specific E.n sum rule (ISelfD= 2).
 Solvent              : Toluene, Eps=   2.374100 Eps(inf)=   2.238315
 ------------------------------------------------------------------------------
 One-electron integrals computed using PRISM.
   1 Symmetry operations used in ECPInt.
 ECPInt:  NShTT=   37675 NPrTT=  122775 LenC2=   34119 LenP2D=   77136.
 LDataN:  DoStor=T MaxTD1= 4 Len=   56
 Number of processors reduced to  64 by ecpmxn.
 NBasis=   710 RedAO= T EigKep=  1.29D-06  NBF=   710
 NBsUse=   702 1.00D-06 EigRej=  7.79D-07 NBFU=   702
 ExpMin= 3.15D-02 ExpMax= 6.29D+03 ExpMxC= 9.49D+02 IAcc=3 IRadAn=         5 AccDes= 0.00D+00
 Harris functional with IExCor= 4639 and IRadAn=       5 diagonalized for initial guess.
 HarFok:  IExCor= 4639 AccDes= 0.00D+00 IRadAn=         5 IDoV= 1 UseB2=F ITyADJ=14
 ICtDFT=  3500011 ScaDFX=  1.000000  1.000000  1.000000  1.000000
 FoFCou: FMM=F IPFlag=           0 FMFlag=      100000 FMFlg1=           0
         NFxFlg=           0 DoJE=T BraDBF=F KetDBF=T FulRan=T
         wScrn=  0.000000 ICntrl=       500 IOpCl=  0 I1Cent=   200000004 NGrid=           0
         NMat0=    1 NMatS0=      1 NMatT0=    0 NMatD0=    1 NMtDS0=    0 NMtDT0=    0
 Symmetry not used in FoFCou.
 Requested convergence on RMS density matrix=1.00D-08 within 300 cycles.
 Requested convergence on MAX density matrix=1.00D-06.
 Requested convergence on             energy=1.00D-06.
 No special actions if energy rises.
 Inv3:  Mode=1 IEnd=    29203200.
 Iteration    1 A*A^-1 deviation from unit magnitude is 6.44D-15 for   3118.
 Iteration    1 A*A^-1 deviation from orthogonality  is 2.44D-15 for   3118   2846.
 Iteration    1 A^-1*A deviation from unit magnitude is 6.44D-15 for   3118.
 Iteration    1 A^-1*A deviation from orthogonality  is 2.07D-15 for   2553   2268.
 Error on total polarization charges =  0.01183
 SCF Done:  E(RwB97XD) =  -933.484956634     A.U. after   17 cycles
            NFock= 17  Conv=0.62D-08     -V/T= 2.0046

 **********************************************************************

            Population analysis using the SCF Density.

 **********************************************************************

 Alpha  occ. eigenvalues --  -14.44995 -10.33471 -10.30978 -10.30965 -10.30612
 Alpha  occ. eigenvalues --  -10.30416 -10.30053 -10.29550 -10.29533 -10.29528
 Alpha  occ. eigenvalues --  -10.29074 -10.29035 -10.28902 -10.28842 -10.27729
 Alpha  occ. eigenvalues --  -10.27620 -10.27436 -10.27248 -10.27072 -10.26876
 Alpha  occ. eigenvalues --  -10.26831 -10.25477 -10.25110  -6.82880  -1.05612
 Alpha  occ. eigenvalues --   -1.00813  -0.94622  -0.92740  -0.90225  -0.86749
 Alpha  occ. eigenvalues --   -0.86036  -0.85364  -0.84639  -0.82313  -0.80225
 Alpha  occ. eigenvalues --   -0.77893  -0.76541  -0.76329  -0.72536  -0.71375
 Alpha  occ. eigenvalues --   -0.67102  -0.66863  -0.65528  -0.65243  -0.63368
 Alpha  occ. eigenvalues --   -0.61866  -0.58414  -0.57998  -0.57534  -0.56428
 Alpha  occ. eigenvalues --   -0.55750  -0.55361  -0.54642  -0.53433  -0.52042
 Alpha  occ. eigenvalues --   -0.51286  -0.51199  -0.50519  -0.50148  -0.49705
 Alpha  occ. eigenvalues --   -0.49469  -0.48511  -0.48346  -0.47933  -0.47029
 Alpha  occ. eigenvalues --   -0.46629  -0.45536  -0.44541  -0.43795  -0.43228
 Alpha  occ. eigenvalues --   -0.42629  -0.42346  -0.41869  -0.41323  -0.41079
 Alpha  occ. eigenvalues --   -0.39973  -0.39890  -0.37745  -0.37103  -0.36563
 Alpha  occ. eigenvalues --   -0.35095  -0.34274  -0.32472  -0.29045  -0.26908
 Alpha virt. eigenvalues --    0.00243   0.01438   0.03696   0.04394   0.04453
 Alpha virt. eigenvalues --    0.05133   0.05594   0.05648   0.06155   0.06607
 Alpha virt. eigenvalues --    0.06810   0.07039   0.07145   0.07544   0.08209
 Alpha virt. eigenvalues --    0.08637   0.08938   0.09121   0.09307   0.09407
 Alpha virt. eigenvalues --    0.09698   0.10096   0.10785   0.11050   0.11400
 Alpha virt. eigenvalues --    0.11564   0.11989   0.12294   0.12645   0.13196
 Alpha virt. eigenvalues --    0.13254   0.13520   0.14129   0.14322   0.14967
 Alpha virt. eigenvalues --    0.15212   0.15320   0.15741   0.15811   0.16042
 Alpha virt. eigenvalues --    0.16411   0.16653   0.16870   0.17209   0.17416
 Alpha virt. eigenvalues --    0.17563   0.17683   0.17911   0.18030   0.18298
 Alpha virt. eigenvalues --    0.18567   0.18811   0.18883   0.19325   0.19538
 Alpha virt. eigenvalues --    0.19809   0.19912   0.20143   0.20256   0.20584
 Alpha virt. eigenvalues --    0.20751   0.20905   0.21137   0.21510   0.21748
 Alpha virt. eigenvalues --    0.21972   0.22208   0.22439   0.22672   0.22797
 Alpha virt. eigenvalues --    0.22894   0.23365   0.23493   0.23644   0.23761
 Alpha virt. eigenvalues --    0.24119   0.24279   0.24559   0.24689   0.24914
 Alpha virt. eigenvalues --    0.25199   0.25291   0.25742   0.25797   0.26158
 Alpha virt. eigenvalues --    0.26334   0.26676   0.26869   0.27019   0.27165
 Alpha virt. eigenvalues --    0.27348   0.27570   0.28074   0.28396   0.28634
 Alpha virt. eigenvalues --    0.29004   0.29165   0.29349   0.29773   0.29924
 Alpha virt. eigenvalues --    0.30106   0.30515   0.30746   0.31010   0.31108
 Alpha virt. eigenvalues --    0.31376   0.31695   0.31941   0.32097   0.32250
 Alpha virt. eigenvalues --    0.32415   0.32824   0.33422   0.33566   0.33663
 Alpha virt. eigenvalues --    0.33900   0.34308   0.34916   0.35103   0.35392
 Alpha virt. eigenvalues --    0.35466   0.35690   0.36220   0.36488   0.36644
 Alpha virt. eigenvalues --    0.36809   0.37036   0.37137   0.37565   0.37995
 Alpha virt. eigenvalues --    0.38049   0.38366   0.38827   0.39144   0.39385
 Alpha virt. eigenvalues --    0.39560   0.39861   0.40258   0.40408   0.40711
 Alpha virt. eigenvalues --    0.40849   0.41150   0.41771   0.41990   0.42059
 Alpha virt. eigenvalues --    0.42573   0.42917   0.43237   0.43810   0.43997
 Alpha virt. eigenvalues --    0.44106   0.44458   0.44842   0.45654   0.45877
 Alpha virt. eigenvalues --    0.46380   0.46726   0.47132   0.47376   0.47736
 Alpha virt. eigenvalues --    0.48155   0.48808   0.49449   0.49725   0.51192
 Alpha virt. eigenvalues --    0.52160   0.52325   0.53431   0.54248   0.55101
 Alpha virt. eigenvalues --    0.56778   0.56953   0.58550   0.58989   0.59802
 Alpha virt. eigenvalues --    0.60532   0.60795   0.61272   0.61429   0.61872
 Alpha virt. eigenvalues --    0.62830   0.63119   0.63541   0.64090   0.64604
 Alpha virt. eigenvalues --    0.65158   0.65692   0.66075   0.67055   0.67523
 Alpha virt. eigenvalues --    0.67770   0.69065   0.69195   0.69445   0.70195
 Alpha virt. eigenvalues --    0.70513   0.70954   0.71591   0.72031   0.72332
 Alpha virt. eigenvalues --    0.72638   0.73051   0.73250   0.73500   0.73755
 Alpha virt. eigenvalues --    0.74536   0.74677   0.75180   0.75856   0.76021
 Alpha virt. eigenvalues --    0.76553   0.77041   0.77095   0.77543   0.78414
 Alpha virt. eigenvalues --    0.79008   0.79199   0.80009   0.80385   0.80740
 Alpha virt. eigenvalues --    0.80827   0.81272   0.81434   0.82241   0.82722
 Alpha virt. eigenvalues --    0.82805   0.83143   0.83827   0.84020   0.84080
 Alpha virt. eigenvalues --    0.84911   0.85051   0.85541   0.85954   0.86180
 Alpha virt. eigenvalues --    0.86558   0.87024   0.87432   0.87663   0.88415
 Alpha virt. eigenvalues --    0.88473   0.89017   0.89503   0.89564   0.89873
 Alpha virt. eigenvalues --    0.90268   0.90616   0.91386   0.91975   0.92407
 Alpha virt. eigenvalues --    0.92986   0.93667   0.93932   0.94472   0.95434
 Alpha virt. eigenvalues --    0.95699   0.96570   0.97028   0.97310   0.98105
 Alpha virt. eigenvalues --    0.98769   0.98951   1.00174   1.01218   1.01846
 Alpha virt. eigenvalues --    1.02049   1.02546   1.03114   1.03652   1.04521
 Alpha virt. eigenvalues --    1.04784   1.04988   1.06303   1.07531   1.07838
 Alpha virt. eigenvalues --    1.08763   1.09779   1.10140   1.10678   1.11056
 Alpha virt. eigenvalues --    1.12533   1.12911   1.13707   1.14928   1.15105
 Alpha virt. eigenvalues --    1.15737   1.16269   1.17789   1.18068   1.18547
 Alpha virt. eigenvalues --    1.20209   1.21570   1.21625   1.22329   1.23110
 Alpha virt. eigenvalues --    1.24041   1.25330   1.26511   1.27086   1.28237
 Alpha virt. eigenvalues --    1.29653   1.30745   1.32672   1.33182   1.34807
 Alpha virt. eigenvalues --    1.35428   1.37262   1.38203   1.39696   1.40296
 Alpha virt. eigenvalues --    1.41840   1.42923   1.43194   1.44156   1.45647
 Alpha virt. eigenvalues --    1.46499   1.48329   1.49260   1.51462   1.52522
 Alpha virt. eigenvalues --    1.53461   1.54170   1.54515   1.56132   1.57157
 Alpha virt. eigenvalues --    1.57284   1.58865   1.59802   1.60281   1.61194
 Alpha virt. eigenvalues --    1.62343   1.62818   1.62890   1.63663   1.64354
 Alpha virt. eigenvalues --    1.65019   1.65414   1.65874   1.66331   1.66682
 Alpha virt. eigenvalues --    1.67818   1.68338   1.69225   1.69970   1.70320
 Alpha virt. eigenvalues --    1.70586   1.71861   1.72703   1.73015   1.73707
 Alpha virt. eigenvalues --    1.74268   1.74605   1.75051   1.75732   1.75865
 Alpha virt. eigenvalues --    1.76343   1.76871   1.77261   1.77959   1.78725
 Alpha virt. eigenvalues --    1.79088   1.80204   1.80360   1.80884   1.81616
 Alpha virt. eigenvalues --    1.81857   1.82413   1.83066   1.83835   1.84242
 Alpha virt. eigenvalues --    1.84860   1.85367   1.85677   1.86274   1.87145
 Alpha virt. eigenvalues --    1.87653   1.87943   1.89172   1.89636   1.90572
 Alpha virt. eigenvalues --    1.90834   1.91368   1.92953   1.93007   1.93440
 Alpha virt. eigenvalues --    1.94508   1.95230   1.95724   1.96328   1.96863
 Alpha virt. eigenvalues --    1.97414   1.97863   1.98462   1.99014   2.00183
 Alpha virt. eigenvalues --    2.01121   2.01717   2.02227   2.02608   2.03069
 Alpha virt. eigenvalues --    2.03343   2.04571   2.06596   2.06956   2.07470
 Alpha virt. eigenvalues --    2.07878   2.08739   2.10336   2.11074   2.11609
 Alpha virt. eigenvalues --    2.12210   2.12897   2.13901   2.15328   2.16308
 Alpha virt. eigenvalues --    2.17739   2.17803   2.18617   2.19574   2.20541
 Alpha virt. eigenvalues --    2.20976   2.22329   2.24082   2.24583   2.25805
 Alpha virt. eigenvalues --    2.26679   2.28016   2.29300   2.29846   2.30331
 Alpha virt. eigenvalues --    2.31447   2.31609   2.33311   2.33860   2.35530
 Alpha virt. eigenvalues --    2.36271   2.37412   2.38708   2.39873   2.40984
 Alpha virt. eigenvalues --    2.41742   2.42630   2.44052   2.45047   2.45888
 Alpha virt. eigenvalues --    2.46540   2.47395   2.48136   2.49122   2.49841
 Alpha virt. eigenvalues --    2.51722   2.53322   2.53625   2.55645   2.56227
 Alpha virt. eigenvalues --    2.56792   2.57877   2.58315   2.59185   2.59620
 Alpha virt. eigenvalues --    2.60542   2.62468   2.63397   2.64277   2.65235
 Alpha virt. eigenvalues --    2.65922   2.66443   2.67637   2.67905   2.68750
 Alpha virt. eigenvalues --    2.70770   2.72221   2.72835   2.73940   2.74629
 Alpha virt. eigenvalues --    2.75173   2.76325   2.77399   2.77735   2.79838
 Alpha virt. eigenvalues --    2.80041   2.80175   2.80949   2.81660   2.81937
 Alpha virt. eigenvalues --    2.82783   2.83381   2.84295   2.84863   2.85431
 Alpha virt. eigenvalues --    2.86050   2.86697   2.87246   2.87880   2.88590
 Alpha virt. eigenvalues --    2.88894   2.89729   2.90169   2.90649   2.91929
 Alpha virt. eigenvalues --    2.92400   2.93286   2.94054   2.94852   2.95516
 Alpha virt. eigenvalues --    2.95797   2.96555   2.98178   2.98647   2.98795
 Alpha virt. eigenvalues --    2.99930   3.00794   3.01349   3.02511   3.04205
 Alpha virt. eigenvalues --    3.05357   3.05816   3.07729   3.08830   3.09105
 Alpha virt. eigenvalues --    3.10147   3.11506   3.12868   3.13230   3.13889
 Alpha virt. eigenvalues --    3.15774   3.17588   3.19004   3.19697   3.21255
 Alpha virt. eigenvalues --    3.22097   3.22859   3.24637   3.26233   3.29144
 Alpha virt. eigenvalues --    3.29981   3.31251   3.33079   3.33606   3.36401
 Alpha virt. eigenvalues --    3.37753   3.38180   3.46635   3.47475   3.50294
 Alpha virt. eigenvalues --    3.51756   3.53023   3.53467   3.55164   3.56325
 Alpha virt. eigenvalues --    3.62584   3.64259   3.65799   3.66946   3.69358
 Alpha virt. eigenvalues --    3.70633   3.75481   3.78485   3.82472   3.83882
 Alpha virt. eigenvalues --    3.85803   3.86670   3.87809   3.91702   3.92026
 Alpha virt. eigenvalues --    3.93520   3.94046   3.96309   3.99564   4.03802
 Alpha virt. eigenvalues --    4.04918   4.06360   4.10157   4.13752   4.14545
 Alpha virt. eigenvalues --    4.15706   4.19174   4.20302   4.23638   4.26935
 Alpha virt. eigenvalues --    4.27140   4.29781   4.38300   4.42611   4.46127
 Alpha virt. eigenvalues --    4.47435   4.48133   4.53721   4.54597   4.88581
 Alpha virt. eigenvalues --    4.98163   5.00627   5.16077  14.96144  23.69466
 Alpha virt. eigenvalues --   23.83472  23.95529  24.05394  24.05741  24.06334
 Alpha virt. eigenvalues --   24.06740  24.08959  24.09349  24.10479  24.11443
 Alpha virt. eigenvalues --   24.11819  24.12716  24.13622  24.16660  24.19323
 Alpha virt. eigenvalues --   24.22194  24.23743  24.28019  24.30425  24.33008
 Alpha virt. eigenvalues --   24.49128  35.77380
          Condensed to atoms (all electrons):
               1          2          3          4          5          6
     1  C    9.926162  -1.372936  -3.085700   1.844711   0.796995   0.712745
     2  C   -1.372936   9.962515   0.356658  -2.198497   1.098613  -0.388932
     3  C   -3.085700   0.356658  10.878319  -1.289162  -2.085061  -1.446450
     4  C    1.844711  -2.198497  -1.289162   8.400331  -0.790311   1.445443
     5  C    0.796995   1.098613  -2.085061  -0.790311   7.982075   0.450489
     6  C    0.712745  -0.388932  -1.446450   1.445443   0.450489   9.013426
     7  C   -0.273209  -0.081862  -1.000573   0.094115   1.200034  -1.027139
     8  H   -0.013164   0.017364  -0.074281   0.000507   0.448657  -0.005021
     9  C   -1.545731   0.071183   2.797088  -0.538696  -2.329875  -1.700183
    10  H    0.005897   0.002717  -0.007360   0.003117  -0.054239   0.030216
    11  H   -0.023347  -0.004415   0.043272   0.035713  -0.043301  -0.065438
    12  C   -1.013143  -1.566650   1.080289   0.349188  -0.714615   0.092059
    13  H   -0.006371  -0.101802   0.033273  -0.006315  -0.007826   0.001527
    14  C   -0.494842  -1.204592   0.202970  -0.239683  -0.115409   0.109238
    15  H    0.008147  -0.024973  -0.003971   0.008385  -0.002032   0.001843
    16  C   -1.670382   2.921849   0.526523  -1.870007   0.426371  -0.548763
    17  C    1.977345  -1.228360  -0.637546   0.931155   0.084136  -0.207437
    18  H   -0.047663   0.096496   0.023023  -0.051301   0.013373  -0.017632
    19  B   -0.678744  -0.501453   0.052293   0.203856  -0.178947   0.156579
    20  N    0.231411  -0.156788  -0.318489  -0.167173   0.085405  -0.068799
    21  C    0.031089  -0.000670   0.014548   0.024398  -0.066300  -0.058113
    22  H    0.001957   0.004742   0.001059   0.002142   0.008286  -0.053740
    23  H   -0.007601   0.001792   0.011304  -0.003377  -0.009928   0.013856
    24  H   -0.001082  -0.000051  -0.016541   0.005689   0.009063   0.019643
    25  C    0.203080  -0.142451  -0.264834  -0.048805   0.042051  -0.272237
    26  H   -0.006772  -0.015148  -0.014223   0.002427  -0.002598   0.044648
    27  H    0.009434   0.027734   0.023652   0.017985   0.007028  -0.026509
    28  H    0.013626   0.024577   0.023601   0.070305   0.006434   0.072479
    29  C    0.008727  -0.099473  -0.196328   0.402972   0.024518  -0.007449
    30  H    0.044327   0.045089   0.002836   0.001612   0.011979  -0.041229
    31  C   -0.046981   0.053222   0.065493  -0.214298  -0.007405   0.020819
    32  H   -0.003803  -0.006032  -0.000897   0.005425  -0.001678   0.004853
    33  C   -0.016725   0.095808   0.037256  -0.068538   0.010373  -0.036244
    34  H   -0.000937   0.000024   0.000459  -0.002978   0.000133  -0.001227
    35  H   -0.000839   0.010582   0.002551  -0.002828   0.000879  -0.000174
    36  C    0.428451   0.231011   0.066248  -0.188634   0.083263  -0.166486
    37  H    0.040656   0.013621  -0.003590  -0.011329   0.010128  -0.006133
    38  H    0.000188   0.003847   0.001435   0.000350   0.001330   0.000627
    39  C   -0.017414  -0.189200  -0.017877  -0.133353  -0.047447   0.128865
    40  H   -0.007083  -0.002729  -0.000522   0.003199  -0.001421   0.007212
    41  H    0.027247   0.001526  -0.012407  -0.006911   0.012369  -0.019777
    42  C    0.045483  -0.050111  -0.034857   0.137500   0.004126  -0.019684
    43  H    0.001362   0.001598   0.000538  -0.001472   0.000163  -0.001352
    44  H   -0.007508   0.006131   0.002694  -0.004929   0.000396  -0.003842
    45  C   -0.090608   0.000247  -0.015275   0.020894  -0.007807   0.023368
    46  H   -0.001950  -0.001233  -0.000654  -0.000820   0.000119  -0.000544
    47  H   -0.002365   0.000484  -0.000871   0.004213  -0.000319   0.002741
    48  C   -0.007659   0.076213   0.034668   0.000695   0.001562   0.030693
    49  H    0.000304   0.002186   0.001305  -0.001965   0.000123  -0.000490
    50  H   -0.000281   0.000174   0.000004   0.002621  -0.000098   0.003456
               7          8          9         10         11         12
     1  C   -0.273209  -0.013164  -1.545731   0.005897  -0.023347  -1.013143
     2  C   -0.081862   0.017364   0.071183   0.002717  -0.004415  -1.566650
     3  C   -1.000573  -0.074281   2.797088  -0.007360   0.043272   1.080289
     4  C    0.094115   0.000507  -0.538696   0.003117   0.035713   0.349188
     5  C    1.200034   0.448657  -2.329875  -0.054239  -0.043301  -0.714615
     6  C   -1.027139  -0.005021  -1.700183   0.030216  -0.065438   0.092059
     7  C    7.690513   0.012311  -0.463429   0.349057  -0.092686  -0.031253
     8  H    0.012311   0.446285  -0.027120  -0.005169   0.000834  -0.003654
     9  C   -0.463429  -0.027120  10.679556  -0.003631   0.530628   0.284198
    10  H    0.349057  -0.005169  -0.003631   0.452413  -0.005135  -0.003240
    11  H   -0.092686   0.000834   0.530628  -0.005135   0.484347   0.006418
    12  C   -0.031253  -0.003654   0.284198  -0.003240   0.006418   7.552262
    13  H    0.001765   0.000346  -0.001690   0.000157  -0.000028   0.424364
    14  C    0.040511   0.000338   0.008569   0.000215   0.000692   1.724772
    15  H    0.000372   0.000090  -0.000140  -0.000018   0.000025  -0.022745
    16  C    0.013206   0.000114  -0.151858   0.000717  -0.003187  -1.860277
    17  C    0.123347   0.000217  -0.423603   0.001408  -0.007818  -0.071589
    18  H    0.000929   0.000044  -0.005050   0.000036  -0.000102  -0.047602
    19  B    0.048165   0.001424   0.317939  -0.001540   0.009474   0.160306
    20  N    0.105912  -0.000042  -0.728613  -0.002695  -0.042791  -0.021626
    21  C   -0.237782  -0.002075  -0.060315   0.001211   0.027368  -0.000255
    22  H    0.009759   0.000011   0.007591   0.000108  -0.007844  -0.000372
    23  H   -0.014170  -0.000165   0.059800   0.000155   0.007783   0.000527
    24  H    0.016252   0.000111  -0.029142  -0.000023  -0.009369  -0.000497
    25  C    0.035783  -0.000196  -0.312576   0.000702  -0.024085  -0.033495
    26  H    0.009199  -0.000010   0.007566   0.000019   0.000878  -0.000609
    27  H   -0.024847   0.000037  -0.021685  -0.000365  -0.000321  -0.001006
    28  H   -0.005746  -0.000057   0.033785   0.000371  -0.000156   0.022084
    29  C   -0.026637  -0.000018  -0.139527  -0.000660  -0.007427  -0.055457
    30  H   -0.000110  -0.000006   0.004954   0.000068  -0.001572  -0.000382
    31  C    0.003135  -0.000162   0.008193   0.000032   0.000445   0.034903
    32  H   -0.000105   0.000004   0.002400  -0.000008   0.000073   0.000941
    33  C   -0.001023   0.000069  -0.007933  -0.000022   0.000015   0.006448
    34  H   -0.000007  -0.000000  -0.000336   0.000000  -0.000001   0.001023
    35  H   -0.000366   0.000019   0.000274  -0.000010  -0.000007  -0.002017
    36  C   -0.027928   0.000916  -0.083229  -0.000491  -0.002529   0.076394
    37  H   -0.000676   0.000000  -0.009542  -0.000030  -0.000289   0.006989
    38  H   -0.000459   0.000008  -0.001978   0.000013  -0.000108  -0.000601
    39  C    0.022616  -0.000802   0.006464   0.001005   0.003787  -0.036408
    40  H    0.001116  -0.000026   0.003482   0.000030   0.000142  -0.000362
    41  H    0.000046   0.000182  -0.035048  -0.000152  -0.002402  -0.002397
    42  C   -0.002916   0.000034  -0.009706   0.000004  -0.000557  -0.068820
    43  H    0.000023   0.000000  -0.000234   0.000000  -0.000016  -0.000088
    44  H   -0.000536  -0.000005  -0.000986  -0.000005  -0.000035  -0.005348
    45  C   -0.003728  -0.000030   0.003043  -0.000038   0.000029  -0.039076
    46  H   -0.000068  -0.000000  -0.000362  -0.000000  -0.000005  -0.000292
    47  H   -0.000022   0.000001   0.001121  -0.000001   0.000017  -0.000826
    48  C   -0.000211   0.000043   0.018174  -0.000035   0.000584   0.012916
    49  H   -0.000026   0.000001   0.000129  -0.000001  -0.000015   0.000262
    50  H    0.000013  -0.000000   0.000848   0.000002   0.000050   0.000070
              13         14         15         16         17         18
     1  C   -0.006371  -0.494842   0.008147  -1.670382   1.977345  -0.047663
     2  C   -0.101802  -1.204592  -0.024973   2.921849  -1.228360   0.096496
     3  C    0.033273   0.202970  -0.003971   0.526523  -0.637546   0.023023
     4  C   -0.006315  -0.239683   0.008385  -1.870007   0.931155  -0.051301
     5  C   -0.007826  -0.115409  -0.002032   0.426371   0.084136   0.013373
     6  C    0.001527   0.109238   0.001843  -0.548763  -0.207437  -0.017632
     7  C    0.001765   0.040511   0.000372   0.013206   0.123347   0.000929
     8  H    0.000346   0.000338   0.000090   0.000114   0.000217   0.000044
     9  C   -0.001690   0.008569  -0.000140  -0.151858  -0.423603  -0.005050
    10  H    0.000157   0.000215  -0.000018   0.000717   0.001408   0.000036
    11  H   -0.000028   0.000692   0.000025  -0.003187  -0.007818  -0.000102
    12  C    0.424364   1.724772  -0.022745  -1.860277  -0.071589  -0.047602
    13  H    0.440184   0.016541  -0.005173  -0.006619  -0.012321   0.002001
    14  C    0.016541   8.032153   0.433555  -0.889731  -1.264802  -0.130467
    15  H   -0.005173   0.433555   0.457908  -0.083512   0.022184  -0.008188
    16  C   -0.006619  -0.889731  -0.083512  11.196870  -2.289715   0.605644
    17  C   -0.012321  -1.264802   0.022184  -2.289715   9.198017  -0.130824
    18  H    0.002001  -0.130467  -0.008188   0.605644  -0.130824   0.522609
    19  B   -0.000028   0.154258  -0.019505   0.150446  -0.947912  -0.045158
    20  N    0.000541   0.008405   0.000244   0.020144   0.105832   0.000725
    21  C   -0.000012  -0.001255  -0.000021  -0.009216  -0.000509  -0.000285
    22  H    0.000002   0.000027  -0.000004   0.001482   0.002586   0.000082
    23  H    0.000003  -0.000692  -0.000012  -0.000900  -0.007152  -0.000054
    24  H   -0.000013   0.000126  -0.000001  -0.000369   0.001898  -0.000013
    25  C    0.000124   0.000050   0.000671  -0.080004   0.104923  -0.002297
    26  H    0.000005   0.002767   0.000095  -0.008262   0.008553  -0.000806
    27  H   -0.000045  -0.002764  -0.000068   0.016042   0.001548   0.000785
    28  H    0.001198  -0.030405  -0.000906  -0.059166   0.010090   0.003476
    29  C    0.000095  -0.004630  -0.001019  -0.303354   0.086895   0.005870
    30  H    0.000215  -0.006764   0.000166  -0.040603   0.032532   0.001192
    31  C   -0.000054  -0.011700  -0.005922   0.767494  -1.271882   0.015134
    32  H   -0.000416  -0.005986   0.001341  -0.073450   0.090966  -0.006844
    33  C   -0.000385   0.075917   0.004714   0.137657   0.099766   0.004941
    34  H    0.000021   0.004395   0.000028   0.021918  -0.022797  -0.000835
    35  H   -0.000415  -0.009449   0.000287   0.015504  -0.021483  -0.005770
    36  C   -0.000230   0.007176   0.003268  -0.025380   0.155885  -0.000879
    37  H   -0.000103   0.001693   0.000999  -0.020100   0.030972   0.000925
    38  H   -0.000002  -0.001478   0.000023  -0.003748   0.015235   0.000251
    39  C    0.000024   0.021633   0.001603  -0.194030   0.356095  -0.019481
    40  H    0.000001   0.000665   0.000020  -0.007026   0.020628  -0.000230
    41  H   -0.000037   0.002137   0.000109   0.001467   0.040391   0.000302
    42  C   -0.000846  -0.152828   0.000631  -0.603828   1.072898  -0.010490
    43  H   -0.000003   0.002663   0.000031   0.009370   0.008275   0.000455
    44  H   -0.000076  -0.001621  -0.000007   0.017281   0.014835   0.001029
    45  C   -0.000651  -0.026721  -0.001295   0.022282   0.123075   0.002502
    46  H    0.000001   0.001360  -0.000021   0.005953  -0.012140   0.000036
    47  H   -0.000032  -0.000991   0.000042  -0.013870   0.007326  -0.001464
    48  C    0.000037  -0.007106  -0.001034   0.150887  -0.335870   0.010099
    49  H    0.000002  -0.000211  -0.000053   0.011623  -0.028656   0.000419
    50  H   -0.000000  -0.000817  -0.000003  -0.004521  -0.007977  -0.000329
              19         20         21         22         23         24
     1  C   -0.678744   0.231411   0.031089   0.001957  -0.007601  -0.001082
     2  C   -0.501453  -0.156788  -0.000670   0.004742   0.001792  -0.000051
     3  C    0.052293  -0.318489   0.014548   0.001059   0.011304  -0.016541
     4  C    0.203856  -0.167173   0.024398   0.002142  -0.003377   0.005689
     5  C   -0.178947   0.085405  -0.066300   0.008286  -0.009928   0.009063
     6  C    0.156579  -0.068799  -0.058113  -0.053740   0.013856   0.019643
     7  C    0.048165   0.105912  -0.237782   0.009759  -0.014170   0.016252
     8  H    0.001424  -0.000042  -0.002075   0.000011  -0.000165   0.000111
     9  C    0.317939  -0.728613  -0.060315   0.007591   0.059800  -0.029142
    10  H   -0.001540  -0.002695   0.001211   0.000108   0.000155  -0.000023
    11  H    0.009474  -0.042791   0.027368  -0.007844   0.007783  -0.009369
    12  C    0.160306  -0.021626  -0.000255  -0.000372   0.000527  -0.000497
    13  H   -0.000028   0.000541  -0.000012   0.000002   0.000003  -0.000013
    14  C    0.154258   0.008405  -0.001255   0.000027  -0.000692   0.000126
    15  H   -0.019505   0.000244  -0.000021  -0.000004  -0.000012  -0.000001
    16  C    0.150446   0.020144  -0.009216   0.001482  -0.000900  -0.000369
    17  C   -0.947912   0.105832  -0.000509   0.002586  -0.007152   0.001898
    18  H   -0.045158   0.000725  -0.000285   0.000082  -0.000054  -0.000013
    19  B   12.792339   0.084711  -0.007331  -0.004831   0.003776  -0.004251
    20  N    0.084711   7.256386   0.266932  -0.048028  -0.057563  -0.061863
    21  C   -0.007331   0.266932   5.481162   0.412636   0.426332   0.393774
    22  H   -0.004831  -0.048028   0.412636   0.573882  -0.043629  -0.052052
    23  H    0.003776  -0.057563   0.426332  -0.043629   0.517813  -0.016972
    24  H   -0.004251  -0.061863   0.393774  -0.052052  -0.016972   0.545379
    25  C   -0.305060   0.495311  -0.228409   0.002308  -0.034068   0.028653
    26  H    0.012621  -0.038359  -0.006195  -0.003491   0.009144  -0.003171
    27  H    0.015150  -0.117249  -0.007471   0.015888  -0.002645   0.000583
    28  H   -0.539513  -0.138673  -0.009497  -0.002682   0.008343  -0.007108
    29  C    0.320335   0.040503  -0.040133   0.010052  -0.024410   0.013318
    30  H   -0.543583   0.012608  -0.015694   0.002330  -0.002299  -0.005281
    31  C    1.249998  -0.008916  -0.005630  -0.000381   0.002778  -0.000618
    32  H   -0.196647  -0.000291   0.000194  -0.000061   0.000038   0.000019
    33  C   -1.166855   0.003377   0.000061   0.000151  -0.000882  -0.000123
    34  H    0.002588   0.000073  -0.000016  -0.000001  -0.000026   0.000004
    35  H   -0.153861  -0.000238   0.000066   0.000000  -0.000062   0.000026
    36  C   -3.005925  -0.013056  -0.030953   0.002339  -0.010385   0.004040
    37  H   -0.250583   0.003318   0.000484   0.000087  -0.000410   0.000025
    38  H    0.001585  -0.000154  -0.000225   0.000052   0.000104   0.000199
    39  C    0.532433  -0.006516   0.100086  -0.011507   0.023720  -0.008144
    40  H    0.016026  -0.004624   0.004840  -0.000017   0.001082  -0.001377
    41  H   -0.270087   0.023970  -0.014970   0.001059  -0.014578   0.007847
    42  C   -1.465319  -0.001904   0.011543  -0.000037  -0.003958   0.001395
    43  H   -0.020234   0.000012  -0.000012   0.000030  -0.000167   0.000031
    44  H   -0.156713  -0.001767   0.000757   0.000092   0.000186   0.000182
    45  C   -0.072666  -0.011756   0.001969  -0.000229   0.002018   0.000652
    46  H    0.051494  -0.000062  -0.000109   0.000002  -0.000014   0.000018
    47  H   -0.070290  -0.000306   0.000086  -0.000023   0.000013   0.000014
    48  C    0.010470  -0.025930  -0.032977   0.000678   0.004042  -0.000793
    49  H    0.023203  -0.000323  -0.001079   0.000072   0.000189   0.000032
    50  H    0.086008  -0.001411  -0.000371  -0.000186   0.000934  -0.000112
              25         26         27         28         29         30
     1  C    0.203080  -0.006772   0.009434   0.013626   0.008727   0.044327
     2  C   -0.142451  -0.015148   0.027734   0.024577  -0.099473   0.045089
     3  C   -0.264834  -0.014223   0.023652   0.023601  -0.196328   0.002836
     4  C   -0.048805   0.002427   0.017985   0.070305   0.402972   0.001612
     5  C    0.042051  -0.002598   0.007028   0.006434   0.024518   0.011979
     6  C   -0.272237   0.044648  -0.026509   0.072479  -0.007449  -0.041229
     7  C    0.035783   0.009199  -0.024847  -0.005746  -0.026637  -0.000110
     8  H   -0.000196  -0.000010   0.000037  -0.000057  -0.000018  -0.000006
     9  C   -0.312576   0.007566  -0.021685   0.033785  -0.139527   0.004954
    10  H    0.000702   0.000019  -0.000365   0.000371  -0.000660   0.000068
    11  H   -0.024085   0.000878  -0.000321  -0.000156  -0.007427  -0.001572
    12  C   -0.033495  -0.000609  -0.001006   0.022084  -0.055457  -0.000382
    13  H    0.000124   0.000005  -0.000045   0.001198   0.000095   0.000215
    14  C    0.000050   0.002767  -0.002764  -0.030405  -0.004630  -0.006764
    15  H    0.000671   0.000095  -0.000068  -0.000906  -0.001019   0.000166
    16  C   -0.080004  -0.008262   0.016042  -0.059166  -0.303354  -0.040603
    17  C    0.104923   0.008553   0.001548   0.010090   0.086895   0.032532
    18  H   -0.002297  -0.000806   0.000785   0.003476   0.005870   0.001192
    19  B   -0.305060   0.012621   0.015150  -0.539513   0.320335  -0.543583
    20  N    0.495311  -0.038359  -0.117249  -0.138673   0.040503   0.012608
    21  C   -0.228409  -0.006195  -0.007471  -0.009497  -0.040133  -0.015694
    22  H    0.002308  -0.003491   0.015888  -0.002682   0.010052   0.002330
    23  H   -0.034068   0.009144  -0.002645   0.008343  -0.024410  -0.002299
    24  H    0.028653  -0.003171   0.000583  -0.007108   0.013318  -0.005281
    25  C    6.013695   0.361631   0.449811   0.171142   0.025093   0.071897
    26  H    0.361631   0.571809  -0.052999  -0.003774  -0.096883  -0.001653
    27  H    0.449811  -0.052999   0.565443  -0.111055   0.031542   0.000035
    28  H    0.171142  -0.003774  -0.111055   1.233278   0.205024   0.020204
    29  C    0.025093  -0.096883   0.031542   0.205024   9.732264   0.338922
    30  H    0.071897  -0.001653   0.000035   0.020204   0.338922   0.624653
    31  C   -0.048541  -0.010648   0.004885   0.021920  -0.822975   0.010586
    32  H   -0.000801  -0.001642   0.000613  -0.018878   0.035967  -0.007424
    33  C   -0.025625  -0.007391   0.001232   0.012617  -0.338889   0.014153
    34  H    0.001067  -0.000127   0.000107  -0.000952  -0.055804  -0.001122
    35  H   -0.002764  -0.000255   0.000255  -0.009619  -0.021844  -0.001895
    36  C    0.001098  -0.036708   0.006411   0.152888  -3.198404   0.193981
    37  H    0.005425   0.000831   0.000039   0.002953  -0.206834   0.050090
    38  H   -0.000756  -0.001194   0.000323   0.002105  -0.060540  -0.019903
    39  C    0.113992   0.155549  -0.056628  -0.190764  -2.058699   0.008540
    40  H   -0.006402   0.007272  -0.002139  -0.001432  -0.048732  -0.002364
    41  H   -0.009298  -0.040730   0.009588   0.002288   0.065604  -0.007621
    42  C    0.091839   0.029397  -0.007402  -0.113986   0.045420   0.000630
    43  H   -0.000451   0.000406  -0.000131  -0.000364  -0.008070   0.001581
    44  H    0.020905  -0.007993   0.002941  -0.020080   0.020052  -0.005408
    45  C    0.022079  -0.000933   0.001464  -0.044236   1.042996  -0.117230
    46  H    0.000230  -0.000195  -0.000012   0.000884   0.040426  -0.004521
    47  H   -0.000711   0.000737  -0.000033  -0.005372   0.119556   0.004627
    48  C   -0.029452  -0.042247   0.017911   0.088218   0.501130  -0.000891
    49  H   -0.002393  -0.003372   0.000248   0.008060   0.039432  -0.001275
    50  H   -0.000759   0.000748   0.000001   0.000241   0.033841   0.000534
              31         32         33         34         35         36
     1  C   -0.046981  -0.003803  -0.016725  -0.000937  -0.000839   0.428451
     2  C    0.053222  -0.006032   0.095808   0.000024   0.010582   0.231011
     3  C    0.065493  -0.000897   0.037256   0.000459   0.002551   0.066248
     4  C   -0.214298   0.005425  -0.068538  -0.002978  -0.002828  -0.188634
     5  C   -0.007405  -0.001678   0.010373   0.000133   0.000879   0.083263
     6  C    0.020819   0.004853  -0.036244  -0.001227  -0.000174  -0.166486
     7  C    0.003135  -0.000105  -0.001023  -0.000007  -0.000366  -0.027928
     8  H   -0.000162   0.000004   0.000069  -0.000000   0.000019   0.000916
     9  C    0.008193   0.002400  -0.007933  -0.000336   0.000274  -0.083229
    10  H    0.000032  -0.000008  -0.000022   0.000000  -0.000010  -0.000491
    11  H    0.000445   0.000073   0.000015  -0.000001  -0.000007  -0.002529
    12  C    0.034903   0.000941   0.006448   0.001023  -0.002017   0.076394
    13  H   -0.000054  -0.000416  -0.000385   0.000021  -0.000415  -0.000230
    14  C   -0.011700  -0.005986   0.075917   0.004395  -0.009449   0.007176
    15  H   -0.005922   0.001341   0.004714   0.000028   0.000287   0.003268
    16  C    0.767494  -0.073450   0.137657   0.021918   0.015504  -0.025380
    17  C   -1.271882   0.090966   0.099766  -0.022797  -0.021483   0.155885
    18  H    0.015134  -0.006844   0.004941  -0.000835  -0.005770  -0.000879
    19  B    1.249998  -0.196647  -1.166855   0.002588  -0.153861  -3.005925
    20  N   -0.008916  -0.000291   0.003377   0.000073  -0.000238  -0.013056
    21  C   -0.005630   0.000194   0.000061  -0.000016   0.000066  -0.030953
    22  H   -0.000381  -0.000061   0.000151  -0.000001   0.000000   0.002339
    23  H    0.002778   0.000038  -0.000882  -0.000026  -0.000062  -0.010385
    24  H   -0.000618   0.000019  -0.000123   0.000004   0.000026   0.004040
    25  C   -0.048541  -0.000801  -0.025625   0.001067  -0.002764   0.001098
    26  H   -0.010648  -0.001642  -0.007391  -0.000127  -0.000255  -0.036708
    27  H    0.004885   0.000613   0.001232   0.000107   0.000255   0.006411
    28  H    0.021920  -0.018878   0.012617  -0.000952  -0.009619   0.152888
    29  C   -0.822975   0.035967  -0.338889  -0.055804  -0.021844  -3.198404
    30  H    0.010586  -0.007424   0.014153  -0.001122  -0.001895   0.193981
    31  C    8.377981   0.283301  -0.875829  -0.057336  -0.001455   0.476776
    32  H    0.283301   0.547050   0.048086  -0.009066   0.019954  -0.050595
    33  C   -0.875829   0.048086   7.476660   0.532064   0.512505   1.288794
    34  H   -0.057336  -0.009066   0.532064   0.515950  -0.016901   0.064644
    35  H   -0.001455   0.019954   0.512505  -0.016901   0.583165   0.083205
    36  C    0.476776  -0.050595   1.288794   0.064644   0.083205  13.820843
    37  H    0.041951  -0.008102   0.070800   0.000918   0.016090   0.795635
    38  H   -0.022304   0.000796   0.034926   0.000736  -0.000328   0.503712
    39  C   -0.600185   0.015390  -0.416999   0.007973  -0.042857  -2.413160
    40  H   -0.053312   0.000591   0.000731  -0.001913   0.000189  -0.144171
    41  H   -0.021680   0.000410   0.010948   0.001662   0.000353   0.192567
    42  C   -2.257586   0.099286  -0.152030  -0.059666   0.007597  -0.838351
    43  H   -0.068011  -0.014463   0.000871   0.007804   0.001290   0.013953
    44  H   -0.173392   0.019930  -0.008248  -0.001530  -0.009233  -0.063331
    45  C   -0.180091   0.025271  -0.826290  -0.110631  -0.141009  -2.492156
    46  H    0.036629   0.000597  -0.138024  -0.001606  -0.027407  -0.140425
    47  H   -0.006099   0.003552  -0.058175  -0.012578   0.019812  -0.186296
    48  C    0.940761  -0.022506   0.233962   0.006739   0.035236   1.162751
    49  H    0.063055   0.000018   0.006250  -0.000041  -0.006124   0.069948
    50  H    0.057743  -0.000809  -0.005211  -0.001148   0.001592   0.006140
              37         38         39         40         41         42
     1  C    0.040656   0.000188  -0.017414  -0.007083   0.027247   0.045483
     2  C    0.013621   0.003847  -0.189200  -0.002729   0.001526  -0.050111
     3  C   -0.003590   0.001435  -0.017877  -0.000522  -0.012407  -0.034857
     4  C   -0.011329   0.000350  -0.133353   0.003199  -0.006911   0.137500
     5  C    0.010128   0.001330  -0.047447  -0.001421   0.012369   0.004126
     6  C   -0.006133   0.000627   0.128865   0.007212  -0.019777  -0.019684
     7  C   -0.000676  -0.000459   0.022616   0.001116   0.000046  -0.002916
     8  H    0.000000   0.000008  -0.000802  -0.000026   0.000182   0.000034
     9  C   -0.009542  -0.001978   0.006464   0.003482  -0.035048  -0.009706
    10  H   -0.000030   0.000013   0.001005   0.000030  -0.000152   0.000004
    11  H   -0.000289  -0.000108   0.003787   0.000142  -0.002402  -0.000557
    12  C    0.006989  -0.000601  -0.036408  -0.000362  -0.002397  -0.068820
    13  H   -0.000103  -0.000002   0.000024   0.000001  -0.000037  -0.000846
    14  C    0.001693  -0.001478   0.021633   0.000665   0.002137  -0.152828
    15  H    0.000999   0.000023   0.001603   0.000020   0.000109   0.000631
    16  C   -0.020100  -0.003748  -0.194030  -0.007026   0.001467  -0.603828
    17  C    0.030972   0.015235   0.356095   0.020628   0.040391   1.072898
    18  H    0.000925   0.000251  -0.019481  -0.000230   0.000302  -0.010490
    19  B   -0.250583   0.001585   0.532433   0.016026  -0.270087  -1.465319
    20  N    0.003318  -0.000154  -0.006516  -0.004624   0.023970  -0.001904
    21  C    0.000484  -0.000225   0.100086   0.004840  -0.014970   0.011543
    22  H    0.000087   0.000052  -0.011507  -0.000017   0.001059  -0.000037
    23  H   -0.000410   0.000104   0.023720   0.001082  -0.014578  -0.003958
    24  H    0.000025   0.000199  -0.008144  -0.001377   0.007847   0.001395
    25  C    0.005425  -0.000756   0.113992  -0.006402  -0.009298   0.091839
    26  H    0.000831  -0.001194   0.155549   0.007272  -0.040730   0.029397
    27  H    0.000039   0.000323  -0.056628  -0.002139   0.009588  -0.007402
    28  H    0.002953   0.002105  -0.190764  -0.001432   0.002288  -0.113986
    29  C   -0.206834  -0.060540  -2.058699  -0.048732   0.065604   0.045420
    30  H    0.050090  -0.019903   0.008540  -0.002364  -0.007621   0.000630
    31  C    0.041951  -0.022304  -0.600185  -0.053312  -0.021680  -2.257586
    32  H   -0.008102   0.000796   0.015390   0.000591   0.000410   0.099286
    33  C    0.070800   0.034926  -0.416999   0.000731   0.010948  -0.152030
    34  H    0.000918   0.000736   0.007973  -0.001913   0.001662  -0.059666
    35  H    0.016090  -0.000328  -0.042857   0.000189   0.000353   0.007597
    36  C    0.795635   0.503712  -2.413160  -0.144171   0.192567  -0.838351
    37  H    0.568348  -0.027060  -0.057973  -0.002483  -0.013082  -0.058319
    38  H   -0.027060   0.491907  -0.062646   0.003460   0.004853   0.002465
    39  C   -0.057973  -0.062646  11.297075   0.658574   0.178152   1.800698
    40  H   -0.002483   0.003460   0.658574   0.529295  -0.034650   0.066091
    41  H   -0.013082   0.004853   0.178152  -0.034650   0.839547   0.093590
    42  C   -0.058319   0.002465   1.800698   0.066091   0.093590   9.517578
    43  H    0.001715  -0.000272   0.025184   0.000252   0.003057   0.463129
    44  H   -0.008016   0.001270   0.081051  -0.000023   0.017629   0.676163
    45  C   -0.236887  -0.066960   0.594690   0.014466   0.028294   0.703845
    46  H   -0.031249   0.000582   0.001874  -0.001737   0.003969   0.008939
    47  H    0.009922  -0.010469   0.009870   0.003767  -0.010628   0.049774
    48  C    0.055077   0.007358  -2.578368  -0.200572  -0.089959  -1.964398
    49  H   -0.006073   0.003221  -0.230415  -0.009900   0.015011  -0.171899
    50  H    0.002304  -0.000335  -0.173220  -0.004203  -0.039988  -0.169177
              43         44         45         46         47         48
     1  C    0.001362  -0.007508  -0.090608  -0.001950  -0.002365  -0.007659
     2  C    0.001598   0.006131   0.000247  -0.001233   0.000484   0.076213
     3  C    0.000538   0.002694  -0.015275  -0.000654  -0.000871   0.034668
     4  C   -0.001472  -0.004929   0.020894  -0.000820   0.004213   0.000695
     5  C    0.000163   0.000396  -0.007807   0.000119  -0.000319   0.001562
     6  C   -0.001352  -0.003842   0.023368  -0.000544   0.002741   0.030693
     7  C    0.000023  -0.000536  -0.003728  -0.000068  -0.000022  -0.000211
     8  H    0.000000  -0.000005  -0.000030  -0.000000   0.000001   0.000043
     9  C   -0.000234  -0.000986   0.003043  -0.000362   0.001121   0.018174
    10  H    0.000000  -0.000005  -0.000038  -0.000000  -0.000001  -0.000035
    11  H   -0.000016  -0.000035   0.000029  -0.000005   0.000017   0.000584
    12  C   -0.000088  -0.005348  -0.039076  -0.000292  -0.000826   0.012916
    13  H   -0.000003  -0.000076  -0.000651   0.000001  -0.000032   0.000037
    14  C    0.002663  -0.001621  -0.026721   0.001360  -0.000991  -0.007106
    15  H    0.000031  -0.000007  -0.001295  -0.000021   0.000042  -0.001034
    16  C    0.009370   0.017281   0.022282   0.005953  -0.013870   0.150887
    17  C    0.008275   0.014835   0.123075  -0.012140   0.007326  -0.335870
    18  H    0.000455   0.001029   0.002502   0.000036  -0.001464   0.010099
    19  B   -0.020234  -0.156713  -0.072666   0.051494  -0.070290   0.010470
    20  N    0.000012  -0.001767  -0.011756  -0.000062  -0.000306  -0.025930
    21  C   -0.000012   0.000757   0.001969  -0.000109   0.000086  -0.032977
    22  H    0.000030   0.000092  -0.000229   0.000002  -0.000023   0.000678
    23  H   -0.000167   0.000186   0.002018  -0.000014   0.000013   0.004042
    24  H    0.000031   0.000182   0.000652   0.000018   0.000014  -0.000793
    25  C   -0.000451   0.020905   0.022079   0.000230  -0.000711  -0.029452
    26  H    0.000406  -0.007993  -0.000933  -0.000195   0.000737  -0.042247
    27  H   -0.000131   0.002941   0.001464  -0.000012  -0.000033   0.017911
    28  H   -0.000364  -0.020080  -0.044236   0.000884  -0.005372   0.088218
    29  C   -0.008070   0.020052   1.042996   0.040426   0.119556   0.501130
    30  H    0.001581  -0.005408  -0.117230  -0.004521   0.004627  -0.000891
    31  C   -0.068011  -0.173392  -0.180091   0.036629  -0.006099   0.940761
    32  H   -0.014463   0.019930   0.025271   0.000597   0.003552  -0.022506
    33  C    0.000871  -0.008248  -0.826290  -0.138024  -0.058175   0.233962
    34  H    0.007804  -0.001530  -0.110631  -0.001606  -0.012578   0.006739
    35  H    0.001290  -0.009233  -0.141009  -0.027407   0.019812   0.035236
    36  C    0.013953  -0.063331  -2.492156  -0.140425  -0.186296   1.162751
    37  H    0.001715  -0.008016  -0.236887  -0.031249   0.009922   0.055077
    38  H   -0.000272   0.001270  -0.066960   0.000582  -0.010469   0.007358
    39  C    0.025184   0.081051   0.594690   0.001874   0.009870  -2.578368
    40  H    0.000252  -0.000023   0.014466  -0.001737   0.003767  -0.200572
    41  H    0.003057   0.017629   0.028294   0.003969  -0.010628  -0.089959
    42  C    0.463129   0.676163   0.703845   0.008939   0.049774  -1.964398
    43  H    0.501912  -0.016653  -0.000286  -0.000727   0.002845  -0.097459
    44  H   -0.016653   0.572917   0.077496   0.002746  -0.003214  -0.198689
    45  C   -0.000286   0.077496   7.709225   0.538740   0.490827  -0.662212
    46  H   -0.000727   0.002746   0.538740   0.501057  -0.034604  -0.011591
    47  H    0.002845  -0.003214   0.490827  -0.034604   0.586380  -0.023191
    48  C   -0.097459  -0.198689  -0.662212  -0.011591  -0.023191   8.069237
    49  H   -0.010238   0.006479  -0.032251   0.005410  -0.021999   0.586444
    50  H   -0.005620  -0.023818  -0.019772  -0.001180   0.003656   0.567993
              49         50
     1  C    0.000304  -0.000281
     2  C    0.002186   0.000174
     3  C    0.001305   0.000004
     4  C   -0.001965   0.002621
     5  C    0.000123  -0.000098
     6  C   -0.000490   0.003456
     7  C   -0.000026   0.000013
     8  H    0.000001  -0.000000
     9  C    0.000129   0.000848
    10  H   -0.000001   0.000002
    11  H   -0.000015   0.000050
    12  C    0.000262   0.000070
    13  H    0.000002  -0.000000
    14  C   -0.000211  -0.000817
    15  H   -0.000053  -0.000003
    16  C    0.011623  -0.004521
    17  C   -0.028656  -0.007977
    18  H    0.000419  -0.000329
    19  B    0.023203   0.086008
    20  N   -0.000323  -0.001411
    21  C   -0.001079  -0.000371
    22  H    0.000072  -0.000186
    23  H    0.000189   0.000934
    24  H    0.000032  -0.000112
    25  C   -0.002393  -0.000759
    26  H   -0.003372   0.000748
    27  H    0.000248   0.000001
    28  H    0.008060   0.000241
    29  C    0.039432   0.033841
    30  H   -0.001275   0.000534
    31  C    0.063055   0.057743
    32  H    0.000018  -0.000809
    33  C    0.006250  -0.005211
    34  H   -0.000041  -0.001148
    35  H   -0.006124   0.001592
    36  C    0.069948   0.006140
    37  H   -0.006073   0.002304
    38  H    0.003221  -0.000335
    39  C   -0.230415  -0.173220
    40  H   -0.009900  -0.004203
    41  H    0.015011  -0.039988
    42  C   -0.171899  -0.169177
    43  H   -0.010238  -0.005620
    44  H    0.006479  -0.023818
    45  C   -0.032251  -0.019772
    46  H    0.005410  -0.001180
    47  H   -0.021999   0.003656
    48  C    0.586444   0.567993
    49  H    0.578918  -0.025838
    50  H   -0.025838   0.510139
 Mulliken charges:
               1
     1  C    0.085497
     2  C    0.210356
     3  C    0.244108
     4  C   -0.177570
     5  C   -0.353852
     6  C   -0.195803
     7  C   -0.460665
     8  H    0.202035
     9  C   -0.214769
    10  H    0.235201
    11  H    0.192414
    12  C   -0.231709
    13  H    0.229067
    14  C   -0.247883
    15  H    0.233845
    16  C   -0.218966
    17  C    0.201380
    18  H    0.221383
    19  B   -0.850439
    20  N    0.300187
    21  C   -0.361657
    22  H    0.167622
    23  H    0.160387
    24  H    0.169993
    25  C   -0.387090
    26  H    0.182087
    27  H    0.206658
    28  H    0.102235
    29  C    0.633641
    30  H    0.328487
    31  C    0.236162
    32  H    0.223442
    33  C   -0.569706
    34  H    0.189255
    35  H    0.167777
    36  C   -0.772632
    37  H    0.226869
    38  H    0.198560
    39  C   -0.582853
    40  H    0.196321
    41  H    0.060231
    42  C   -0.711378
    43  H    0.197777
    44  H    0.179845
    45  C   -0.248646
    46  H    0.210487
    47  H    0.143367
    48  C   -0.291429
    49  H    0.132293
    50  H    0.208074
 Sum of Mulliken charges =  -0.00000
 Mulliken charges with hydrogens summed into heavy atoms:
               1
     1  C    0.085497
     2  C    0.210356
     3  C    0.244108
     4  C   -0.177570
     5  C   -0.151817
     6  C   -0.195803
     7  C   -0.225464
     9  C   -0.022355
    12  C   -0.002642
    14  C   -0.014038
    16  C    0.002417
    17  C    0.201380
    19  B   -0.850439
    20  N    0.300187
    21  C    0.136346
    25  C    0.103890
    29  C    0.962128
    31  C    0.459604
    33  C   -0.212674
    36  C   -0.347203
    39  C   -0.326300
    42  C   -0.333756
    45  C    0.105208
    48  C    0.048938
 Electronic spatial extent (au):  <R**2>=          15782.2494
 Charge=             -0.0000 electrons
 Dipole moment (field-independent basis, Debye):
    X=             -0.8952    Y=              1.1224    Z=              0.7957  Tot=              1.6415
 Quadrupole moment (field-independent basis, Debye-Ang):
   XX=           -149.0232   YY=           -128.3920   ZZ=           -135.1932
   XY=             -6.5992   XZ=             -3.3880   YZ=              5.7784
 Traceless Quadrupole moment (field-independent basis, Debye-Ang):
   XX=            -11.4871   YY=              9.1441   ZZ=              2.3429
   XY=             -6.5992   XZ=             -3.3880   YZ=              5.7784
 Octapole moment (field-independent basis, Debye-Ang**2):
  XXX=           -901.8329  YYY=          -1029.0042  ZZZ=           -633.5812  XYY=           -313.3114
  XXY=           -420.7724  XXZ=           -204.4388  XZZ=           -282.5777  YZZ=           -349.2939
  YYZ=           -177.4884  XYZ=            -11.1921
 Hexadecapole moment (field-independent basis, Debye-Ang**3):
 XXXX=          -5203.0569 YYYY=          -9337.5735 ZZZZ=          -6568.5009 XXXY=          -1748.7929
 XXXZ=          -1503.9175 YYYX=          -1710.6037 YYYZ=           -847.4054 ZZZX=          -1617.0085
 ZZZY=          -1017.1324 XXYY=          -2748.1134 XXZZ=          -1937.2146 YYZZ=          -2625.4475
 XXYZ=           -327.4449 YYXZ=           -568.1741 ZZXY=           -530.5415
 N-N= 2.048154964862D+03 E-N=-6.261918260326D+03  KE= 9.292188637330D+02
 Breneman (CHELPG) radii used.
 Generate Potential Derived Charges using the Breneman model, NDens= 1.
 Grid spacing= 0.300 Box extension= 2.800
 NStep X,Y,Z=   43     47     51   Total possible points=      103071
 Number of Points to Fit=   24088

 **********************************************************************

            Electrostatic Properties Using The SCF Density.

 **********************************************************************

       Atomic Center    1 is at   1.876664  2.491392 -0.050779
       Atomic Center    2 is at   2.008603  2.519195 -1.461814
       Atomic Center    3 is at   1.686170  3.991329 -1.459136
       Atomic Center    4 is at   1.483680  3.945925 -0.061895
       Atomic Center    5 is at   1.573767  5.136600 -2.197287
       Atomic Center    6 is at   1.042214  5.037870  0.661341
       Atomic Center    7 is at   1.207408  6.281559 -1.457298
       Atomic Center    8 is at   1.744435  5.184364 -3.265363
       Atomic Center    9 is at   0.940526  6.237493 -0.099959
       Atomic Center   10 is at   1.101217  7.231189 -1.970775
       Atomic Center   11 is at   0.622234  7.151049  0.385704
       Atomic Center   12 is at   2.346948  1.414515 -2.186006
       Atomic Center   13 is at   2.460329  1.418615 -3.263786
       Atomic Center   14 is at   2.550941  0.228535 -1.433783
       Atomic Center   15 is at   2.806758 -0.688057 -1.954016
       Atomic Center   16 is at   2.451774  0.217891 -0.057504
       Atomic Center   17 is at   2.143775  1.380820  0.718995
       Atomic Center   18 is at   2.645015 -0.714283  0.464506
       Atomic Center   19 is at   2.335680  1.373274  2.267841
       Atomic Center   20 is at   0.692210  4.954096  2.011666
       Atomic Center   21 is at   0.359021  6.186361  2.698503
       Atomic Center   22 is at  -0.592007  6.628021  2.359833
       Atomic Center   23 is at   0.275646  5.977275  3.766606
       Atomic Center   24 is at   1.154822  6.920878  2.564555
       Atomic Center   25 is at  -0.212045  3.857780  2.329111
       Atomic Center   26 is at  -0.369384  3.816775  3.407624
       Atomic Center   27 is at  -1.189796  3.980329  1.839515
       Atomic Center   28 is at   0.207030  2.901069  2.014170
       Atomic Center   29 is at   3.006719  2.571346  3.028381
       Atomic Center   30 is at   2.976213  3.511492  2.469239
       Atomic Center   31 is at   2.250107  0.087275  3.167283
       Atomic Center   32 is at   1.726476 -0.744892  2.683126
       Atomic Center   33 is at   3.727970 -0.360097  3.376486
       Atomic Center   34 is at   3.764477 -1.165345  4.120776
       Atomic Center   35 is at   4.075365 -0.800762  2.434209
       Atomic Center   36 is at   4.490316  2.082831  3.033649
       Atomic Center   37 is at   4.829018  1.977199  1.994795
       Atomic Center   38 is at   5.118896  2.861710  3.480895
       Atomic Center   39 is at   2.443740  2.831434  4.439492
       Atomic Center   40 is at   3.141090  3.462894  5.004776
       Atomic Center   41 is at   1.536625  3.430243  4.318966
       Atomic Center   42 is at   1.496226  0.427645  4.470951
       Atomic Center   43 is at   1.437464 -0.461743  5.110492
       Atomic Center   44 is at   0.459953  0.678871  4.207581
       Atomic Center   45 is at   4.712250  0.756186  3.775420
       Atomic Center   46 is at   5.732573  0.408727  3.582225
       Atomic Center   47 is at   4.662269  0.934356  4.850640
       Atomic Center   48 is at   2.102228  1.584349  5.276392
       Atomic Center   49 is at   2.992372  1.226091  5.796891
       Atomic Center   50 is at   1.400235  1.871281  6.066736
   24088 points will be used for fitting atomic charges
 Fitting point charges to electrostatic potential
 Charges from ESP fit, RMS=   0.00381 RRMS=   0.37846:
 ESP charges:
               1
     1  C    0.189024
     2  C    0.013135
     3  C    0.114454
     4  C   -0.242626
     5  C   -0.253845
     6  C    0.400801
     7  C   -0.030550
     8  H    0.139093
     9  C   -0.340366
    10  H    0.102371
    11  H    0.148862
    12  C   -0.187832
    13  H    0.135544
    14  C   -0.082526
    15  H    0.090655
    16  C   -0.128492
    17  C   -0.241107
    18  H    0.100475
    19  B    0.338000
    20  N   -0.215286
    21  C   -0.243369
    22  H    0.085494
    23  H    0.100417
    24  H    0.104027
    25  C    0.169587
    26  H    0.053801
    27  H   -0.032553
    28  H   -0.083324
    29  C    0.177699
    30  H   -0.175577
    31  C   -0.017962
    32  H   -0.064620
    33  C    0.171896
    34  H   -0.048558
    35  H   -0.043981
    36  C    0.161199
    37  H   -0.083169
    38  H   -0.034057
    39  C   -0.120292
    40  H    0.007264
    41  H    0.025489
    42  C   -0.019283
    43  H    0.002162
    44  H   -0.013923
    45  C   -0.134770
    46  H    0.009167
    47  H    0.016221
    48  C   -0.034010
    49  H    0.008453
    50  H    0.006788
 Sum of ESP charges =   0.00000
 ESP charges with hydrogens summed into heavy atoms:
               1
     1  C    0.189024
     2  C    0.013135
     3  C    0.114454
     4  C   -0.242626
     5  C   -0.114751
     6  C    0.400801
     7  C    0.071821
     9  C   -0.191504
    12  C   -0.052288
    14  C    0.008130
    16  C   -0.028016
    17  C   -0.241107
    19  B    0.338000
    20  N   -0.215286
    21  C    0.046569
    25  C    0.107512
    29  C    0.002122
    31  C   -0.082582
    33  C    0.079357
    36  C    0.043972
    39  C   -0.087539
    42  C   -0.031043
    45  C   -0.109382
    48  C   -0.018769
 Charge=   0.00000 Dipole=    -1.0165     1.1513     0.6268 Tot=     1.6588
 -----------------------------------------------------------------

              Electrostatic Properties (Atomic Units)

 -----------------------------------------------------------------
    Center     Electric         -------- Electric Field --------
               Potential          X             Y             Z
 -----------------------------------------------------------------
    1 Atom    -14.764486
    2 Atom    -14.769714
    3 Atom    -14.766017
    4 Atom    -14.773154
    5 Atom    -14.777000
    6 Atom    -14.728736
    7 Atom    -14.769900
    8 Atom     -1.102794
    9 Atom    -14.773092
   10 Atom     -1.105409
   11 Atom     -1.100781
   12 Atom    -14.770900
   13 Atom     -1.100579
   14 Atom    -14.777175
   15 Atom     -1.110273
   16 Atom    -14.776323
   17 Atom    -14.792353
   18 Atom     -1.113676
   19 Atom    -11.487882
   20 Atom    -18.372579
   21 Atom    -14.742168
   22 Atom     -1.109863
   23 Atom     -1.103890
   24 Atom     -1.105249
   25 Atom    -14.744333
   26 Atom     -1.104492
   27 Atom     -1.114281
   28 Atom     -1.109389
   29 Atom    -14.806465
   30 Atom     -1.152525
   31 Atom    -14.801352
   32 Atom     -1.144758
   33 Atom    -14.778922
   34 Atom     -1.134860
   35 Atom     -1.135841
   36 Atom    -14.781384
   37 Atom     -1.139053
   38 Atom     -1.136634
   39 Atom    -14.787130
   40 Atom     -1.142003
   41 Atom     -1.141179
   42 Atom    -14.783188
   43 Atom     -1.139300
   44 Atom     -1.137431
   45 Atom    -14.785435
   46 Atom     -1.136561
   47 Atom     -1.139867
   48 Atom    -14.787000
   49 Atom     -1.141840
   50 Atom     -1.138125
 -----------------------------------------------------------------
 Unable to Open any file for archive entry.
 1\1\GINC-IRENE4962\SP\RwB97XD\GenECP\C22H26B1N1\PENASFRA\11-Apr-2024\0
 \\# wb97xd/genecp scrf=(solvent=toluene,pcm) nosymm pop=(chelpg) scfcy
 c=300\\bicyclo_biphenylene_chelpg\\0,1\C,0,1.876664,2.491392,-0.050779
 \C,0,2.008603,2.519195,-1.461814\C,0,1.68617,3.991329,-1.459136\C,0,1.
 48368,3.945925,-0.061895\C,0,1.573767,5.1366,-2.197287\C,0,1.042214,5.
 03787,0.661341\C,0,1.207408,6.281559,-1.457298\H,0,1.744435,5.184364,-
 3.265363\C,0,0.940526,6.237493,-0.099959\H,0,1.101217,7.231189,-1.9707
 75\H,0,0.622234,7.151049,0.385704\C,0,2.346948,1.414515,-2.186006\H,0,
 2.460329,1.418615,-3.263786\C,0,2.550941,0.228535,-1.433783\H,0,2.8067
 58,-0.688057,-1.954016\C,0,2.451774,0.217891,-0.057504\C,0,2.143775,1.
 38082,0.718995\H,0,2.645015,-0.714283,0.464506\B,0,2.33568,1.373274,2.
 267841\N,0,0.69221,4.954096,2.011666\C,0,0.359021,6.186361,2.698503\H,
 0,-0.592007,6.628021,2.359833\H,0,0.275646,5.977275,3.766606\H,0,1.154
 822,6.920878,2.564555\C,0,-0.212045,3.85778,2.329111\H,0,-0.369384,3.8
 16775,3.407624\H,0,-1.189796,3.980329,1.839515\H,0,0.20703,2.901069,2.
 01417\C,0,3.006719,2.571346,3.028381\H,0,2.976213,3.511492,2.469239\C,
 0,2.250107,0.087275,3.167283\H,0,1.726476,-0.744892,2.683126\C,0,3.727
 97,-0.360097,3.376486\H,0,3.764477,-1.165345,4.120776\H,0,4.075365,-0.
 800762,2.434209\C,0,4.490316,2.082831,3.033649\H,0,4.829018,1.977199,1
 .994795\H,0,5.118896,2.86171,3.480895\C,0,2.44374,2.831434,4.439492\H,
 0,3.14109,3.462894,5.004776\H,0,1.536625,3.430243,4.318966\C,0,1.49622
 6,0.427645,4.470951\H,0,1.437464,-0.461743,5.110492\H,0,0.459953,0.678
 871,4.207581\C,0,4.71225,0.756186,3.77542\H,0,5.732573,0.408727,3.5822
 25\H,0,4.662269,0.934356,4.85064\C,0,2.102228,1.584349,5.276392\H,0,2.
 992372,1.226091,5.796891\H,0,1.400235,1.871281,6.066736\\Version=AS64L
 -G16RevC.02\HF=-933.4849566\RMSD=6.181e-09\Dipole=-0.3522126,0.4416028
 ,0.3130352\Quadrupole=-8.5403537,6.7984405,1.7419132,-4.9063514,-2.518
 8764,4.2960882\PG=C01 [X(C22H26B1N1)]\\@
 The archive entry for this job was punched.


 Everything starts as somebody's daydream.
                           -- Larry Niven
 Job cpu time:       0 days  4 hours 11 minutes 30.4 seconds.
 Elapsed time:       0 days  0 hours  2 minutes 25.7 seconds.
 File lengths (MBytes):  RWF=    427 Int=      0 D2E=      0 Chk=     31 Scr=      1
 Normal termination of Gaussian 16 at Thu Apr 11 14:50:35 2024.
