 Entering Gaussian System, Link 0=/ccc/products/gaussian-16-C.02/system/default/g16/g16
 Input=bicyclo_dibenzofuran_chelpg.gjf
 Output=bicyclo_dibenzofuran_chelpg.log
 Initial command:
 /ccc/products/gaussian-16-C.02/system/default/g16/l1.exe "/ccc/scratch/cont003/gen7343/penasfra/flp/b-n_flp/bicyclo_dibenzofuran/reac/Gau-320638.inp" -scrdir="/ccc/scratch/cont003/gen7343/penasfra/flp/b-n_flp/bicyclo_dibenzofuran/reac/"
 Entering Link 1 = /ccc/products/gaussian-16-C.02/system/default/g16/l1.exe PID=    320687.
  
 Copyright (c) 1988-2021, Gaussian, Inc.  All Rights Reserved.
  
 This is part of the Gaussian(R) 16 program.  It is based on
 the Gaussian(R) 09 system (copyright 2009, Gaussian, Inc.),
 the Gaussian(R) 03 system (copyright 2003, Gaussian, Inc.),
 the Gaussian(R) 98 system (copyright 1998, Gaussian, Inc.),
 the Gaussian(R) 94 system (copyright 1995, Gaussian, Inc.),
 the Gaussian 92(TM) system (copyright 1992, Gaussian, Inc.),
 the Gaussian 90(TM) system (copyright 1990, Gaussian, Inc.),
 the Gaussian 88(TM) system (copyright 1988, Gaussian, Inc.),
 the Gaussian 86(TM) system (copyright 1986, Carnegie Mellon
 University), and the Gaussian 82(TM) system (copyright 1983,
 Carnegie Mellon University). Gaussian is a federally registered
 trademark of Gaussian, Inc.
  
 This software contains proprietary and confidential information,
 including trade secrets, belonging to Gaussian, Inc.
  
 This software is provided under written license and may be
 used, copied, transmitted, or stored only in accord with that
 written license.
  
 The following legend is applicable only to US Government
 contracts under FAR:
  
                    RESTRICTED RIGHTS LEGEND
  
 Use, reproduction and disclosure by the US Government is
 subject to restrictions as set forth in subparagraphs (a)
 and (c) of the Commercial Computer Software - Restricted
 Rights clause in FAR 52.227-19.
  
 Gaussian, Inc.
 340 Quinnipiac St., Bldg. 40, Wallingford CT 06492
  
  
 ---------------------------------------------------------------
 Warning -- This program may not be used in any manner that
 competes with the business of Gaussian, Inc. or will provide
 assistance to any competitor of Gaussian, Inc.  The licensee
 of this program is prohibited from giving any competitor of
 Gaussian, Inc. access to this program.  By using this program,
 the user acknowledges that Gaussian, Inc. is engaged in the
 business of creating and licensing software in the field of
 computational chemistry and represents and warrants to the
 licensee that it is not a competitor of Gaussian, Inc. and that
 it will not use this program in any manner prohibited above.
 ---------------------------------------------------------------
  

 Cite this work as:
 Gaussian 16, Revision C.02,
 M. J. Frisch, G. W. Trucks, H. B. Schlegel, G. E. Scuseria, 
 M. A. Robb, J. R. Cheeseman, G. Scalmani, V. Barone, 
 G. A. Petersson, H. Nakatsuji, X. Li, M. Caricato, A. V. Marenich, 
 J. Bloino, B. G. Janesko, R. Gomperts, B. Mennucci, H. P. Hratchian, 
 J. V. Ortiz, A. F. Izmaylov, J. L. Sonnenberg, D. Williams-Young, 
 F. Ding, F. Lipparini, F. Egidi, J. Goings, B. Peng, A. Petrone, 
 T. Henderson, D. Ranasinghe, V. G. Zakrzewski, J. Gao, N. Rega, 
 G. Zheng, W. Liang, M. Hada, M. Ehara, K. Toyota, R. Fukuda, 
 J. Hasegawa, M. Ishida, T. Nakajima, Y. Honda, O. Kitao, H. Nakai, 
 T. Vreven, K. Throssell, J. A. Montgomery, Jr., J. E. Peralta, 
 F. Ogliaro, M. J. Bearpark, J. J. Heyd, E. N. Brothers, K. N. Kudin, 
 V. N. Staroverov, T. A. Keith, R. Kobayashi, J. Normand, 
 K. Raghavachari, A. P. Rendell, J. C. Burant, S. S. Iyengar, 
 J. Tomasi, M. Cossi, J. M. Millam, M. Klene, C. Adamo, R. Cammi, 
 J. W. Ochterski, R. L. Martin, K. Morokuma, O. Farkas, 
 J. B. Foresman, and D. J. Fox, Gaussian, Inc., Wallingford CT, 2019.
 
 ******************************************
 Gaussian 16:  AS64L-G16RevC.02  7-Dec-2021
                11-Apr-2024 
 ******************************************
 %nprocshared=128
 Will use up to  128 processors via shared memory.
 %mem=30GB
 %chk=bicyclo_dibenzofuran_chelpg.chk
 ----------------------------------------------------------------------
 # wb97xd/genecp scrf=(solvent=toluene,pcm) nosymm pop=(chelpg) scfcyc=
 300
 ----------------------------------------------------------------------
 1/38=1,172=1/1;
 2/12=2,15=1,17=6,18=5,40=1/2;
 3/5=7,11=2,16=1,17=8,25=1,30=1,70=2201,72=13,74=-58/1,2,3;
 4//1;
 5/5=2,7=300,38=5,53=13/2;
 6/7=2,8=2,9=2,10=2,15=8,20=3,28=1/1,2;
 99/5=1,9=1/99;
 ---------------------------
 bicyclo_dibenzofuran_chelpg
 ---------------------------
 Symbolic Z-matrix:
 Charge =  0 Multiplicity = 1
 C                     2.26611   2.22513   0.17468 
 C                     2.07409   2.6173   -1.15227 
 O                     1.66729   3.10159   1.03354 
 C                     1.30144   3.84447  -1.09355 
 C                     1.09224   4.07753   0.26374 
 C                     0.75576   4.70574  -2.04696 
 C                     0.34693   5.15338   0.76766 
 C                     0.01454   5.7768   -1.58267 
 H                     0.90008   4.53564  -3.10697 
 C                    -0.18118   5.99983  -0.21334 
 H                    -0.42732   6.47181  -2.28779 
 H                    -0.76354   6.86096   0.0869 
 C                     2.59573   1.82748  -2.17405 
 H                     2.46992   2.10939  -3.21342 
 C                     3.27274   0.66526  -1.82943 
 H                     3.68314   0.03218  -2.60768 
 C                     3.42286   0.29412  -0.48994 
 C                     2.94056   1.07103   0.57323 
 H                     3.94999  -0.62679  -0.26173 
 B                     3.20439   0.68008   2.05996 
 N                     0.11205   5.30566   2.13838 
 C                     1.27759   5.28165   3.01558 
 H                     1.86187   6.21186   2.9401 
 H                     0.94103   5.16739   4.04812 
 H                     1.92248   4.43975   2.7775 
 C                    -0.85091   6.3168    2.52647 
 H                    -1.06153   6.20292   3.59135 
 H                    -0.48927   7.34454   2.35899 
 H                    -1.78614   6.18062   1.98046 
 C                     3.32127   1.69961   3.25167 
 H                     3.37701   2.73961   2.91826 
 C                     3.23536  -0.80597   2.5665 
 H                     3.21372  -1.54189   1.75487 
 C                     4.48307  -1.08618   3.43069 
 H                     4.40751  -2.08286   3.8833 
 H                     5.34807  -1.12523   2.75616 
 C                     4.59929   1.40496   4.06942 
 H                     5.46195   1.67842   3.44785 
 H                     4.6368    2.06639   4.94401 
 C                     4.76904  -0.05007   4.52849 
 H                     5.79425  -0.19001   4.8875 
 H                     4.12995  -0.23982   5.39232 
 C                     1.99337   1.54      4.04322 
 H                     2.02714   2.16725   4.94293 
 H                     1.18685   1.94464   3.42002 
 C                     1.87802  -0.9376    3.32156 
 H                     1.0721   -0.8448    2.58191 
 H                     1.79343  -1.94935   3.7361 
 C                     1.64268   0.09462   4.43747 
 H                     0.58847   0.05622   4.73134 
 H                     2.20478  -0.19416   5.32662 
 
 Symmetry turned off by external request.
 Stoichiometry    C22H26BNO
 Framework group  C1[X(C22H26BNO)]
 Deg. of freedom   147
 Full point group                 C1      NOp   1
                          Input orientation:                          
 ---------------------------------------------------------------------
 Center     Atomic      Atomic             Coordinates (Angstroms)
 Number     Number       Type             X           Y           Z
 ---------------------------------------------------------------------
      1          6           0        2.266110    2.225131    0.174683
      2          6           0        2.074086    2.617297   -1.152268
      3          8           0        1.667289    3.101587    1.033545
      4          6           0        1.301436    3.844465   -1.093546
      5          6           0        1.092237    4.077529    0.263742
      6          6           0        0.755755    4.705735   -2.046959
      7          6           0        0.346932    5.153384    0.767663
      8          6           0        0.014536    5.776802   -1.582674
      9          1           0        0.900076    4.535635   -3.106966
     10          6           0       -0.181182    5.999833   -0.213342
     11          1           0       -0.427318    6.471810   -2.287791
     12          1           0       -0.763535    6.860955    0.086903
     13          6           0        2.595725    1.827481   -2.174047
     14          1           0        2.469919    2.109391   -3.213425
     15          6           0        3.272739    0.665264   -1.829430
     16          1           0        3.683144    0.032178   -2.607678
     17          6           0        3.422861    0.294122   -0.489936
     18          6           0        2.940556    1.071032    0.573227
     19          1           0        3.949992   -0.626790   -0.261726
     20          5           0        3.204390    0.680076    2.059963
     21          7           0        0.112050    5.305664    2.138380
     22          6           0        1.277589    5.281649    3.015578
     23          1           0        1.861870    6.211858    2.940103
     24          1           0        0.941026    5.167393    4.048123
     25          1           0        1.922482    4.439754    2.777502
     26          6           0       -0.850906    6.316801    2.526471
     27          1           0       -1.061533    6.202920    3.591351
     28          1           0       -0.489266    7.344542    2.358992
     29          1           0       -1.786139    6.180615    1.980455
     30          6           0        3.321272    1.699609    3.251674
     31          1           0        3.377005    2.739610    2.918263
     32          6           0        3.235360   -0.805973    2.566495
     33          1           0        3.213724   -1.541890    1.754872
     34          6           0        4.483072   -1.086183    3.430687
     35          1           0        4.407514   -2.082864    3.883304
     36          1           0        5.348073   -1.125227    2.756156
     37          6           0        4.599285    1.404962    4.069417
     38          1           0        5.461948    1.678417    3.447853
     39          1           0        4.636801    2.066395    4.944014
     40          6           0        4.769039   -0.050074    4.528491
     41          1           0        5.794249   -0.190008    4.887504
     42          1           0        4.129955   -0.239820    5.392320
     43          6           0        1.993366    1.539997    4.043225
     44          1           0        2.027136    2.167250    4.942927
     45          1           0        1.186846    1.944635    3.420022
     46          6           0        1.878024   -0.937597    3.321563
     47          1           0        1.072103   -0.844798    2.581907
     48          1           0        1.793427   -1.949352    3.736096
     49          6           0        1.642682    0.094621    4.437469
     50          1           0        0.588466    0.056216    4.731344
     51          1           0        2.204781   -0.194159    5.326618
 ---------------------------------------------------------------------
 Rotational constants (GHZ):           0.3582129           0.1648452           0.1234212
 General basis read from cards:  (5D, 7F)
 ======================================================================================================
                                       Pseudopotential Parameters
 ======================================================================================================
  Center     Atomic      Valence      Angular      Power
  Number     Number     Electrons     Momentum     of R      Exponent        Coefficient   SO-Coeffient
 ======================================================================================================
    1          6
                                   No pseudopotential on this center.
    2          6
                                   No pseudopotential on this center.
    3          8
                                   No pseudopotential on this center.
    4          6
                                   No pseudopotential on this center.
    5          6
                                   No pseudopotential on this center.
    6          6
                                   No pseudopotential on this center.
    7          6
                                   No pseudopotential on this center.
    8          6
                                   No pseudopotential on this center.
    9          1
                                   No pseudopotential on this center.
   10          6
                                   No pseudopotential on this center.
   11          1
                                   No pseudopotential on this center.
   12          1
                                   No pseudopotential on this center.
   13          6
                                   No pseudopotential on this center.
   14          1
                                   No pseudopotential on this center.
   15          6
                                   No pseudopotential on this center.
   16          1
                                   No pseudopotential on this center.
   17          6
                                   No pseudopotential on this center.
   18          6
                                   No pseudopotential on this center.
   19          1
                                   No pseudopotential on this center.
   20          5
                                   No pseudopotential on this center.
   21          7
                                   No pseudopotential on this center.
   22          6
                                   No pseudopotential on this center.
   23          1
                                   No pseudopotential on this center.
   24          1
                                   No pseudopotential on this center.
   25          1
                                   No pseudopotential on this center.
   26          6
                                   No pseudopotential on this center.
   27          1
                                   No pseudopotential on this center.
   28          1
                                   No pseudopotential on this center.
   29          1
                                   No pseudopotential on this center.
   30          6
                                   No pseudopotential on this center.
   31          1
                                   No pseudopotential on this center.
   32          6
                                   No pseudopotential on this center.
   33          1
                                   No pseudopotential on this center.
   34          6
                                   No pseudopotential on this center.
   35          1
                                   No pseudopotential on this center.
   36          1
                                   No pseudopotential on this center.
   37          6
                                   No pseudopotential on this center.
   38          1
                                   No pseudopotential on this center.
   39          1
                                   No pseudopotential on this center.
   40          6
                                   No pseudopotential on this center.
   41          1
                                   No pseudopotential on this center.
   42          1
                                   No pseudopotential on this center.
   43          6
                                   No pseudopotential on this center.
   44          1
                                   No pseudopotential on this center.
   45          1
                                   No pseudopotential on this center.
   46          6
                                   No pseudopotential on this center.
   47          1
                                   No pseudopotential on this center.
   48          1
                                   No pseudopotential on this center.
   49          6
                                   No pseudopotential on this center.
   50          1
                                   No pseudopotential on this center.
   51          1
                                   No pseudopotential on this center.
 ======================================================================================================
   732 basis functions,  1134 primitive gaussians,   757 cartesian basis functions
    89 alpha electrons       89 beta electrons
       nuclear repulsion energy      2182.2696861257 Hartrees.
 NAtoms=   51 NActive=   51 NUniq=   51 SFac= 1.00D+00 NAtFMM=   60 NAOKFM=F Big=F
 Integral buffers will be    131072 words long.
 Raffenetti 2 integral format.
 Two-electron integral symmetry is turned off.
 Nuclear repulsion after empirical dispersion term =     2182.2216365062 Hartrees.
 ------------------------------------------------------------------------------
 Polarizable Continuum Model (PCM)
 =================================
 Model                : PCM.
 Atomic radii         : UFF (Universal Force Field).
 Polarization charges : Total charges.
 Charge compensation  : None.
 Solution method      : On-the-fly selection.
 Cavity type          : Scaled VdW (van der Waals Surface) (Alpha=1.100).
 Cavity algorithm     : GePol (No added spheres)
                        Default sphere list used, NSphG=   51.
                        Lebedev-Laikov grids with approx.  5.0 points / Ang**2.
                        Smoothing algorithm: York/Karplus (Gamma=1.0000).
                        Polarization charges: spherical gaussians, with
                                              point-specific exponents (IZeta= 3).
                        Self-potential: point-specific (ISelfS= 7).
                        Self-field    : sphere-specific E.n sum rule (ISelfD= 2).
 Solvent              : Toluene, Eps=   2.374100 Eps(inf)=   2.238315
 ------------------------------------------------------------------------------
 One-electron integrals computed using PRISM.
   1 Symmetry operations used in ECPInt.
 ECPInt:  NShTT=   39340 NPrTT=  129306 LenC2=   34614 LenP2D=   78169.
 LDataN:  DoStor=T MaxTD1= 4 Len=   56
 Number of processors reduced to  63 by ecpmxn.
 NBasis=   732 RedAO= T EigKep=  1.08D-06  NBF=   732
 NBsUse=   725 1.00D-06 EigRej=  5.51D-07 NBFU=   725
 ExpMin= 3.15D-02 ExpMax= 8.59D+03 ExpMxC= 1.30D+03 IAcc=3 IRadAn=         5 AccDes= 0.00D+00
 Harris functional with IExCor= 4639 and IRadAn=       5 diagonalized for initial guess.
 HarFok:  IExCor= 4639 AccDes= 0.00D+00 IRadAn=         5 IDoV= 1 UseB2=F ITyADJ=14
 ICtDFT=  3500011 ScaDFX=  1.000000  1.000000  1.000000  1.000000
 FoFCou: FMM=F IPFlag=           0 FMFlag=      100000 FMFlg1=           0
         NFxFlg=           0 DoJE=T BraDBF=F KetDBF=T FulRan=T
         wScrn=  0.000000 ICntrl=       500 IOpCl=  0 I1Cent=   200000004 NGrid=           0
         NMat0=    1 NMatS0=      1 NMatT0=    0 NMatD0=    1 NMtDS0=    0 NMtDT0=    0
 Symmetry not used in FoFCou.
 Requested convergence on RMS density matrix=1.00D-08 within 300 cycles.
 Requested convergence on MAX density matrix=1.00D-06.
 Requested convergence on             energy=1.00D-06.
 No special actions if energy rises.
 Inv3:  Mode=1 IEnd=    32176875.
 Iteration    1 A*A^-1 deviation from unit magnitude is 4.88D-15 for   3275.
 Iteration    1 A*A^-1 deviation from orthogonality  is 3.07D-15 for   3254    184.
 Iteration    1 A^-1*A deviation from unit magnitude is 4.88D-15 for   3275.
 Iteration    1 A^-1*A deviation from orthogonality  is 1.80D-15 for   2068      8.
 Error on total polarization charges =  0.01263
 SCF Done:  E(RwB97XD) =  -1008.78142304     A.U. after   16 cycles
            NFock= 16  Conv=0.58D-08     -V/T= 2.0044

 **********************************************************************

            Population analysis using the SCF Density.

 **********************************************************************

 Alpha  occ. eigenvalues --  -19.31342 -14.44920 -10.35201 -10.34700 -10.33517
 Alpha  occ. eigenvalues --  -10.30768 -10.30322 -10.30207 -10.30080 -10.30044
 Alpha  occ. eigenvalues --  -10.29760 -10.29031 -10.28937 -10.28852 -10.28783
 Alpha  occ. eigenvalues --  -10.27896 -10.27733 -10.27394 -10.27281 -10.27213
 Alpha  occ. eigenvalues --  -10.27029 -10.26876 -10.25594 -10.25337  -6.83295
 Alpha  occ. eigenvalues --   -1.22248  -1.05253  -0.97160  -0.95881  -0.92783
 Alpha  occ. eigenvalues --   -0.88983  -0.86835  -0.86716  -0.85457  -0.84250
 Alpha  occ. eigenvalues --   -0.83425  -0.81247  -0.77976  -0.76528  -0.76396
 Alpha  occ. eigenvalues --   -0.73391  -0.72025  -0.69412  -0.66987  -0.66651
 Alpha  occ. eigenvalues --   -0.65947  -0.63364  -0.62674  -0.61200  -0.59787
 Alpha  occ. eigenvalues --   -0.58230  -0.57290  -0.56784  -0.56199  -0.55021
 Alpha  occ. eigenvalues --   -0.54740  -0.54521  -0.53127  -0.51945  -0.51305
 Alpha  occ. eigenvalues --   -0.51065  -0.50503  -0.50175  -0.49872  -0.48914
 Alpha  occ. eigenvalues --   -0.48516  -0.47643  -0.47045  -0.46432  -0.45960
 Alpha  occ. eigenvalues --   -0.45262  -0.45012  -0.44697  -0.44552  -0.43441
 Alpha  occ. eigenvalues --   -0.43010  -0.42428  -0.41443  -0.41329  -0.40580
 Alpha  occ. eigenvalues --   -0.40049  -0.38301  -0.36635  -0.35809  -0.35017
 Alpha  occ. eigenvalues --   -0.33713  -0.31877  -0.30055  -0.27651
 Alpha virt. eigenvalues --    0.00556   0.03694   0.03921   0.04389   0.04514
 Alpha virt. eigenvalues --    0.05299   0.05479   0.05570   0.06343   0.06549
 Alpha virt. eigenvalues --    0.06754   0.07002   0.07147   0.07639   0.08090
 Alpha virt. eigenvalues --    0.08236   0.08378   0.08685   0.08934   0.09155
 Alpha virt. eigenvalues --    0.09857   0.10450   0.10472   0.10684   0.11028
 Alpha virt. eigenvalues --    0.11286   0.11536   0.11701   0.12091   0.12453
 Alpha virt. eigenvalues --    0.13242   0.13384   0.13815   0.14131   0.14388
 Alpha virt. eigenvalues --    0.14662   0.15272   0.15596   0.15699   0.15822
 Alpha virt. eigenvalues --    0.16284   0.16637   0.16705   0.16986   0.17212
 Alpha virt. eigenvalues --    0.17451   0.17539   0.17644   0.17974   0.18116
 Alpha virt. eigenvalues --    0.18354   0.18637   0.18820   0.19004   0.19452
 Alpha virt. eigenvalues --    0.19564   0.19812   0.20080   0.20241   0.20297
 Alpha virt. eigenvalues --    0.20536   0.20721   0.20990   0.21040   0.21138
 Alpha virt. eigenvalues --    0.21448   0.21744   0.21913   0.22167   0.22401
 Alpha virt. eigenvalues --    0.22662   0.22827   0.22997   0.23447   0.23550
 Alpha virt. eigenvalues --    0.23728   0.23859   0.24031   0.24315   0.24436
 Alpha virt. eigenvalues --    0.24654   0.24973   0.25166   0.25573   0.25843
 Alpha virt. eigenvalues --    0.25911   0.26051   0.26208   0.26555   0.26588
 Alpha virt. eigenvalues --    0.27186   0.27318   0.27587   0.27707   0.28195
 Alpha virt. eigenvalues --    0.28451   0.28534   0.28796   0.29082   0.29333
 Alpha virt. eigenvalues --    0.29663   0.29902   0.29963   0.30238   0.30411
 Alpha virt. eigenvalues --    0.30807   0.31066   0.31229   0.31567   0.31962
 Alpha virt. eigenvalues --    0.32283   0.32492   0.32651   0.33194   0.33389
 Alpha virt. eigenvalues --    0.33624   0.33939   0.34267   0.34408   0.34765
 Alpha virt. eigenvalues --    0.34918   0.35024   0.35218   0.35475   0.35840
 Alpha virt. eigenvalues --    0.35992   0.36194   0.36497   0.37091   0.37388
 Alpha virt. eigenvalues --    0.37577   0.37699   0.37727   0.37812   0.38204
 Alpha virt. eigenvalues --    0.38520   0.38881   0.39052   0.39513   0.40070
 Alpha virt. eigenvalues --    0.40338   0.40422   0.40831   0.41106   0.41375
 Alpha virt. eigenvalues --    0.41525   0.41842   0.42102   0.42260   0.42504
 Alpha virt. eigenvalues --    0.43144   0.43528   0.44087   0.44233   0.44254
 Alpha virt. eigenvalues --    0.44808   0.45203   0.45395   0.45770   0.46169
 Alpha virt. eigenvalues --    0.46455   0.47002   0.47661   0.47964   0.48650
 Alpha virt. eigenvalues --    0.49129   0.49550   0.49696   0.49987   0.50539
 Alpha virt. eigenvalues --    0.51155   0.52001   0.52651   0.54089   0.55178
 Alpha virt. eigenvalues --    0.56486   0.57070   0.58475   0.58574   0.58930
 Alpha virt. eigenvalues --    0.59537   0.60469   0.60962   0.62117   0.62254
 Alpha virt. eigenvalues --    0.62619   0.62738   0.63217   0.63717   0.64333
 Alpha virt. eigenvalues --    0.65022   0.65595   0.66322   0.66931   0.67304
 Alpha virt. eigenvalues --    0.67680   0.67995   0.68277   0.68459   0.69119
 Alpha virt. eigenvalues --    0.69646   0.70063   0.70553   0.70877   0.71320
 Alpha virt. eigenvalues --    0.71375   0.72102   0.72151   0.72466   0.72991
 Alpha virt. eigenvalues --    0.73191   0.74268   0.75000   0.75216   0.75420
 Alpha virt. eigenvalues --    0.75756   0.76265   0.76546   0.76920   0.77144
 Alpha virt. eigenvalues --    0.77335   0.78009   0.78273   0.78795   0.79310
 Alpha virt. eigenvalues --    0.80032   0.80250   0.80369   0.81059   0.81144
 Alpha virt. eigenvalues --    0.81596   0.82033   0.82753   0.82973   0.83611
 Alpha virt. eigenvalues --    0.83966   0.84817   0.84969   0.85292   0.85754
 Alpha virt. eigenvalues --    0.86339   0.86412   0.86852   0.87481   0.87658
 Alpha virt. eigenvalues --    0.88136   0.88234   0.89044   0.89234   0.89599
 Alpha virt. eigenvalues --    0.89734   0.90021   0.90717   0.90953   0.91575
 Alpha virt. eigenvalues --    0.91882   0.92474   0.92787   0.93112   0.94343
 Alpha virt. eigenvalues --    0.95075   0.95768   0.96422   0.96603   0.97264
 Alpha virt. eigenvalues --    0.97665   0.98424   0.98671   0.99907   1.00623
 Alpha virt. eigenvalues --    1.00923   1.01447   1.02072   1.02446   1.03874
 Alpha virt. eigenvalues --    1.05029   1.05761   1.06045   1.06307   1.07276
 Alpha virt. eigenvalues --    1.07718   1.08219   1.08855   1.09781   1.11182
 Alpha virt. eigenvalues --    1.11375   1.12003   1.12637   1.13054   1.13764
 Alpha virt. eigenvalues --    1.15240   1.15953   1.16079   1.16855   1.17418
 Alpha virt. eigenvalues --    1.18380   1.18463   1.20678   1.21260   1.22327
 Alpha virt. eigenvalues --    1.22702   1.23113   1.24269   1.24422   1.25516
 Alpha virt. eigenvalues --    1.25803   1.26093   1.28740   1.29336   1.29919
 Alpha virt. eigenvalues --    1.32212   1.33036   1.35339   1.36161   1.36635
 Alpha virt. eigenvalues --    1.37557   1.38317   1.39245   1.39507   1.40757
 Alpha virt. eigenvalues --    1.41836   1.42895   1.43888   1.45272   1.46913
 Alpha virt. eigenvalues --    1.48245   1.48460   1.49454   1.50481   1.51952
 Alpha virt. eigenvalues --    1.53605   1.54468   1.55653   1.57008   1.57927
 Alpha virt. eigenvalues --    1.58882   1.59700   1.60927   1.61562   1.62097
 Alpha virt. eigenvalues --    1.63356   1.63735   1.64054   1.64528   1.65066
 Alpha virt. eigenvalues --    1.65262   1.65829   1.66132   1.66640   1.67705
 Alpha virt. eigenvalues --    1.67795   1.68551   1.69221   1.69722   1.70342
 Alpha virt. eigenvalues --    1.70773   1.72176   1.72455   1.73088   1.73225
 Alpha virt. eigenvalues --    1.73761   1.74606   1.75318   1.75598   1.75966
 Alpha virt. eigenvalues --    1.76742   1.76940   1.77333   1.77857   1.78380
 Alpha virt. eigenvalues --    1.78762   1.79667   1.80174   1.80490   1.80739
 Alpha virt. eigenvalues --    1.81547   1.82331   1.83128   1.83227   1.83351
 Alpha virt. eigenvalues --    1.84602   1.84761   1.85195   1.85418   1.86074
 Alpha virt. eigenvalues --    1.86426   1.87785   1.88193   1.89062   1.89597
 Alpha virt. eigenvalues --    1.90475   1.91628   1.91978   1.92429   1.93774
 Alpha virt. eigenvalues --    1.94090   1.94538   1.95016   1.95217   1.96236
 Alpha virt. eigenvalues --    1.96669   1.97635   1.98820   1.99420   1.99987
 Alpha virt. eigenvalues --    2.00406   2.00757   2.01421   2.01764   2.02462
 Alpha virt. eigenvalues --    2.03873   2.04295   2.04695   2.06034   2.06694
 Alpha virt. eigenvalues --    2.07219   2.08039   2.09308   2.10293   2.11058
 Alpha virt. eigenvalues --    2.11568   2.12504   2.13203   2.14276   2.14789
 Alpha virt. eigenvalues --    2.15854   2.16137   2.17810   2.18405   2.19002
 Alpha virt. eigenvalues --    2.20821   2.21520   2.22359   2.23278   2.24832
 Alpha virt. eigenvalues --    2.25466   2.27264   2.28401   2.29065   2.30092
 Alpha virt. eigenvalues --    2.30354   2.31289   2.32370   2.32760   2.34028
 Alpha virt. eigenvalues --    2.34594   2.36232   2.37317   2.37938   2.38939
 Alpha virt. eigenvalues --    2.39805   2.40981   2.41906   2.42559   2.43678
 Alpha virt. eigenvalues --    2.44552   2.45898   2.46600   2.47479   2.47956
 Alpha virt. eigenvalues --    2.49592   2.50934   2.52306   2.53191   2.53875
 Alpha virt. eigenvalues --    2.55093   2.55717   2.55869   2.56689   2.58267
 Alpha virt. eigenvalues --    2.59928   2.60633   2.62660   2.64375   2.64754
 Alpha virt. eigenvalues --    2.64977   2.65535   2.67484   2.67638   2.68031
 Alpha virt. eigenvalues --    2.69475   2.69710   2.70577   2.72396   2.72841
 Alpha virt. eigenvalues --    2.74052   2.75282   2.76390   2.76486   2.78132
 Alpha virt. eigenvalues --    2.78480   2.79044   2.79507   2.80847   2.81625
 Alpha virt. eigenvalues --    2.81971   2.82821   2.83246   2.83697   2.84848
 Alpha virt. eigenvalues --    2.85612   2.86125   2.86612   2.87095   2.87637
 Alpha virt. eigenvalues --    2.88145   2.88499   2.88903   2.89256   2.89867
 Alpha virt. eigenvalues --    2.90459   2.91488   2.92084   2.92631   2.93948
 Alpha virt. eigenvalues --    2.94070   2.95152   2.95645   2.96058   2.97800
 Alpha virt. eigenvalues --    2.98340   2.99144   2.99911   3.00795   3.01904
 Alpha virt. eigenvalues --    3.04075   3.04381   3.04644   3.05864   3.06321
 Alpha virt. eigenvalues --    3.07624   3.07996   3.09649   3.11189   3.12724
 Alpha virt. eigenvalues --    3.13966   3.14942   3.15414   3.17288   3.17890
 Alpha virt. eigenvalues --    3.20118   3.20773   3.21257   3.21845   3.23097
 Alpha virt. eigenvalues --    3.26507   3.27995   3.28310   3.30111   3.31508
 Alpha virt. eigenvalues --    3.32120   3.34339   3.35449   3.35944   3.39992
 Alpha virt. eigenvalues --    3.44237   3.45969   3.49837   3.51289   3.52287
 Alpha virt. eigenvalues --    3.53356   3.54320   3.56352   3.58103   3.63249
 Alpha virt. eigenvalues --    3.64988   3.67024   3.67603   3.69897   3.72975
 Alpha virt. eigenvalues --    3.75380   3.78925   3.81966   3.84171   3.86621
 Alpha virt. eigenvalues --    3.88167   3.88784   3.89887   3.91990   3.92748
 Alpha virt. eigenvalues --    3.94012   3.95547   3.96267   4.03503   4.04788
 Alpha virt. eigenvalues --    4.05105   4.10347   4.12812   4.13976   4.15762
 Alpha virt. eigenvalues --    4.18490   4.19224   4.23157   4.23515   4.26953
 Alpha virt. eigenvalues --    4.28737   4.30561   4.37462   4.40042   4.42948
 Alpha virt. eigenvalues --    4.44600   4.46716   4.53676   4.66390   4.92917
 Alpha virt. eigenvalues --    4.95871   5.00070   5.15310   5.17297   5.68429
 Alpha virt. eigenvalues --    6.07824  14.94923  23.71752  23.86449  23.95605
 Alpha virt. eigenvalues --   24.05979  24.07616  24.08413  24.09321  24.09800
 Alpha virt. eigenvalues --   24.10416  24.10669  24.11632  24.12368  24.12822
 Alpha virt. eigenvalues --   24.14504  24.16972  24.18616  24.19831  24.21470
 Alpha virt. eigenvalues --   24.24265  24.25179  24.31705  24.34098  35.75230
 Alpha virt. eigenvalues --   50.15100
          Condensed to atoms (all electrons):
 Mulliken charges:
               1
     1  C   -0.158420
     2  C    0.416759
     3  O    0.067811
     4  C    0.749079
     5  C   -0.270281
     6  C   -0.751886
     7  C   -0.233932
     8  C   -0.453536
     9  H    0.174448
    10  C   -0.111159
    11  H    0.238239
    12  H    0.184081
    13  C   -0.260478
    14  H    0.209649
    15  C   -0.625480
    16  H    0.240204
    17  C   -0.378349
    18  C    0.182825
    19  H    0.207828
    20  B    0.261678
    21  N    0.203562
    22  C   -0.531271
    23  H    0.187311
    24  H    0.186207
    25  H    0.083435
    26  C   -0.343205
    27  H    0.177627
    28  H    0.163705
    29  H    0.161289
    30  C    0.433954
    31  H    0.272137
    32  C    0.395032
    33  H    0.202935
    34  C   -0.804246
    35  H    0.173405
    36  H    0.166052
    37  C   -0.795593
    38  H    0.179535
    39  H    0.176737
    40  C   -0.201691
    41  H    0.212213
    42  H    0.137857
    43  C   -0.596207
    44  H    0.193104
    45  H    0.230254
    46  C   -0.652653
    47  H    0.196317
    48  H    0.203680
    49  C   -0.431897
    50  H    0.202801
    51  H    0.128535
 Sum of Mulliken charges =  -0.00000
 Mulliken charges with hydrogens summed into heavy atoms:
               1
     1  C   -0.158420
     2  C    0.416759
     3  O    0.067811
     4  C    0.749079
     5  C   -0.270281
     6  C   -0.577438
     7  C   -0.233932
     8  C   -0.215297
    10  C    0.072922
    13  C   -0.050830
    15  C   -0.385276
    17  C   -0.170521
    18  C    0.182825
    20  B    0.261678
    21  N    0.203562
    22  C   -0.074318
    26  C    0.159416
    30  C    0.706091
    32  C    0.597967
    34  C   -0.464789
    37  C   -0.439321
    40  C    0.148379
    43  C   -0.172849
    46  C   -0.252656
    49  C   -0.100561
 Electronic spatial extent (au):  <R**2>=          16645.2448
 Charge=             -0.0000 electrons
 Dipole moment (field-independent basis, Debye):
    X=             -0.2412    Y=              0.9308    Z=              0.3323  Tot=              1.0173
 Quadrupole moment (field-independent basis, Debye-Ang):
   XX=           -150.4161   YY=           -136.1274   ZZ=           -138.7978
   XY=             -7.7552   XZ=             -2.0641   YZ=              5.7954
 Traceless Quadrupole moment (field-independent basis, Debye-Ang):
   XX=             -8.6357   YY=              5.6530   ZZ=              2.9826
   XY=             -7.7552   XZ=             -2.0641   YZ=              5.7954
 Octapole moment (field-independent basis, Debye-Ang**2):
  XXX=           -933.4011  YYY=           -968.9621  ZZZ=           -633.7636  XYY=           -355.7618
  XXY=           -380.1415  XXZ=           -210.6242  XZZ=           -297.9032  YZZ=           -313.4474
  YYZ=           -165.2051  XYZ=              1.6673
 Hexadecapole moment (field-independent basis, Debye-Ang**3):
 XXXX=          -6312.6404 YYYY=          -9837.8618 ZZZZ=          -6306.4315 XXXY=           -910.3994
 XXXZ=          -1784.4064 YYYX=          -1142.4769 YYYZ=           -355.1700 ZZZX=          -1836.7746
 ZZZY=           -615.1721 XXYY=          -2878.3036 XXZZ=          -2117.1308 YYZZ=          -2593.2425
 XXYZ=           -178.1790 YYXZ=           -583.7382 ZZXY=           -266.3022
 N-N= 2.182221636506D+03 E-N=-6.707837652514D+03  KE= 1.004323319877D+03
 Breneman (CHELPG) radii used.
 Generate Potential Derived Charges using the Breneman model, NDens= 1.
 Grid spacing= 0.300 Box extension= 2.800
 NStep X,Y,Z=   45     52     49   Total possible points=      114660
 Number of Points to Fit=   25049

 **********************************************************************

            Electrostatic Properties Using The SCF Density.

 **********************************************************************

       Atomic Center    1 is at   2.266110  2.225131  0.174683
       Atomic Center    2 is at   2.074086  2.617297 -1.152268
       Atomic Center    3 is at   1.667289  3.101587  1.033545
       Atomic Center    4 is at   1.301436  3.844465 -1.093546
       Atomic Center    5 is at   1.092237  4.077529  0.263742
       Atomic Center    6 is at   0.755755  4.705735 -2.046959
       Atomic Center    7 is at   0.346932  5.153384  0.767663
       Atomic Center    8 is at   0.014536  5.776802 -1.582674
       Atomic Center    9 is at   0.900076  4.535635 -3.106966
       Atomic Center   10 is at  -0.181182  5.999833 -0.213342
       Atomic Center   11 is at  -0.427318  6.471810 -2.287791
       Atomic Center   12 is at  -0.763535  6.860955  0.086903
       Atomic Center   13 is at   2.595725  1.827481 -2.174047
       Atomic Center   14 is at   2.469919  2.109391 -3.213425
       Atomic Center   15 is at   3.272739  0.665264 -1.829430
       Atomic Center   16 is at   3.683144  0.032178 -2.607678
       Atomic Center   17 is at   3.422861  0.294122 -0.489936
       Atomic Center   18 is at   2.940556  1.071032  0.573227
       Atomic Center   19 is at   3.949992 -0.626790 -0.261726
       Atomic Center   20 is at   3.204390  0.680076  2.059963
       Atomic Center   21 is at   0.112050  5.305664  2.138380
       Atomic Center   22 is at   1.277589  5.281649  3.015578
       Atomic Center   23 is at   1.861870  6.211858  2.940103
       Atomic Center   24 is at   0.941026  5.167393  4.048123
       Atomic Center   25 is at   1.922482  4.439754  2.777502
       Atomic Center   26 is at  -0.850906  6.316801  2.526471
       Atomic Center   27 is at  -1.061533  6.202920  3.591351
       Atomic Center   28 is at  -0.489266  7.344542  2.358992
       Atomic Center   29 is at  -1.786139  6.180615  1.980455
       Atomic Center   30 is at   3.321272  1.699609  3.251674
       Atomic Center   31 is at   3.377005  2.739610  2.918263
       Atomic Center   32 is at   3.235360 -0.805973  2.566495
       Atomic Center   33 is at   3.213724 -1.541890  1.754872
       Atomic Center   34 is at   4.483072 -1.086183  3.430687
       Atomic Center   35 is at   4.407514 -2.082864  3.883304
       Atomic Center   36 is at   5.348073 -1.125227  2.756156
       Atomic Center   37 is at   4.599285  1.404962  4.069417
       Atomic Center   38 is at   5.461948  1.678417  3.447853
       Atomic Center   39 is at   4.636801  2.066395  4.944014
       Atomic Center   40 is at   4.769039 -0.050074  4.528491
       Atomic Center   41 is at   5.794249 -0.190008  4.887504
       Atomic Center   42 is at   4.129955 -0.239820  5.392320
       Atomic Center   43 is at   1.993366  1.539997  4.043225
       Atomic Center   44 is at   2.027136  2.167250  4.942927
       Atomic Center   45 is at   1.186846  1.944635  3.420022
       Atomic Center   46 is at   1.878024 -0.937597  3.321563
       Atomic Center   47 is at   1.072103 -0.844798  2.581907
       Atomic Center   48 is at   1.793427 -1.949352  3.736096
       Atomic Center   49 is at   1.642682  0.094621  4.437469
       Atomic Center   50 is at   0.588466  0.056216  4.731344
       Atomic Center   51 is at   2.204781 -0.194159  5.326618
   25049 points will be used for fitting atomic charges
 Fitting point charges to electrostatic potential
 Charges from ESP fit, RMS=   0.00398 RRMS=   0.41513:
 ESP charges:
               1
     1  C    0.286648
     2  C    0.014383
     3  O   -0.209465
     4  C    0.015222
     5  C    0.015333
     6  C   -0.193820
     7  C    0.318725
     8  C   -0.152730
     9  H    0.134231
    10  C   -0.230721
    11  H    0.121905
    12  H    0.141243
    13  C   -0.141344
    14  H    0.131236
    15  C   -0.160023
    16  H    0.110332
    17  C   -0.043758
    18  C   -0.338141
    19  H    0.092512
    20  B    0.429735
    21  N   -0.403075
    22  C    0.140401
    23  H   -0.009135
    24  H    0.039651
    25  H    0.017045
    26  C   -0.096129
    27  H    0.093996
    28  H    0.057372
    29  H    0.066586
    30  C   -0.136707
    31  H   -0.043107
    32  C   -0.099802
    33  H   -0.032636
    34  C    0.089322
    35  H   -0.026753
    36  H   -0.030412
    37  C    0.082465
    38  H   -0.037690
    39  H   -0.017723
    40  C   -0.072980
    41  H    0.003670
    42  H    0.005068
    43  C    0.246351
    44  H   -0.063089
    45  H   -0.082736
    46  C    0.158481
    47  H   -0.063102
    48  H   -0.034431
    49  C   -0.086400
    50  H   -0.004588
    51  H   -0.001415
 Sum of ESP charges =  -0.00000
 ESP charges with hydrogens summed into heavy atoms:
               1
     1  C    0.286648
     2  C    0.014383
     3  O   -0.209465
     4  C    0.015222
     5  C    0.015333
     6  C   -0.059589
     7  C    0.318725
     8  C   -0.030824
    10  C   -0.089478
    13  C   -0.010108
    15  C   -0.049690
    17  C    0.048755
    18  C   -0.338141
    20  B    0.429735
    21  N   -0.403075
    22  C    0.187962
    26  C    0.121825
    30  C   -0.179814
    32  C   -0.132438
    34  C    0.032156
    37  C    0.027051
    40  C   -0.064241
    43  C    0.100525
    46  C    0.060947
    49  C   -0.092403
 Charge=  -0.00000 Dipole=    -0.2152     1.0775     0.1342 Tot=     1.1069
 -----------------------------------------------------------------

              Electrostatic Properties (Atomic Units)

 -----------------------------------------------------------------
    Center     Electric         -------- Electric Field --------
               Potential          X             Y             Z
 -----------------------------------------------------------------
    1 Atom    -14.716237
    2 Atom    -14.766640
    3 Atom    -22.307166
    4 Atom    -14.767152
    5 Atom    -14.720549
    6 Atom    -14.776715
    7 Atom    -14.729101
    8 Atom    -14.776375
    9 Atom     -1.102963
   10 Atom    -14.776444
   11 Atom     -1.108572
   12 Atom     -1.102517
   13 Atom    -14.762973
   14 Atom     -1.094851
   15 Atom    -14.773970
   16 Atom     -1.104744
   17 Atom    -14.767883
   18 Atom    -14.786851
   19 Atom     -1.106269
   20 Atom    -11.483219
   21 Atom    -18.375614
   22 Atom    -14.752684
   23 Atom     -1.120191
   24 Atom     -1.114095
   25 Atom     -1.117936
   26 Atom    -14.745932
   27 Atom     -1.107187
   28 Atom     -1.112590
   29 Atom     -1.108755
   30 Atom    -14.803243
   31 Atom     -1.148320
   32 Atom    -14.799951
   33 Atom     -1.143077
   34 Atom    -14.782787
   35 Atom     -1.138582
   36 Atom     -1.137764
   37 Atom    -14.783996
   38 Atom     -1.139411
   39 Atom     -1.139369
   40 Atom    -14.786853
   41 Atom     -1.138247
   42 Atom     -1.140955
   43 Atom    -14.782753
   44 Atom     -1.136914
   45 Atom     -1.141881
   46 Atom    -14.778967
   47 Atom     -1.136408
   48 Atom     -1.134526
   49 Atom    -14.785634
   50 Atom     -1.137251
   51 Atom     -1.140221
 -----------------------------------------------------------------
 Unable to Open any file for archive entry.
 1\1\GINC-IRENE5215\SP\RwB97XD\GenECP\C22H26B1N1O1\PENASFRA\11-Apr-2024
 \0\\# wb97xd/genecp scrf=(solvent=toluene,pcm) nosymm pop=(chelpg) scf
 cyc=300\\bicyclo_dibenzofuran_chelpg\\0,1\C,0,2.26611,2.225131,0.17468
 3\C,0,2.074086,2.617297,-1.152268\O,0,1.667289,3.101587,1.033545\C,0,1
 .301436,3.844465,-1.093546\C,0,1.092237,4.077529,0.263742\C,0,0.755755
 ,4.705735,-2.046959\C,0,0.346932,5.153384,0.767663\C,0,0.014536,5.7768
 02,-1.582674\H,0,0.900076,4.535635,-3.106966\C,0,-0.181182,5.999833,-0
 .213342\H,0,-0.427318,6.47181,-2.287791\H,0,-0.763535,6.860955,0.08690
 3\C,0,2.595725,1.827481,-2.174047\H,0,2.469919,2.109391,-3.213425\C,0,
 3.272739,0.665264,-1.82943\H,0,3.683144,0.032178,-2.607678\C,0,3.42286
 1,0.294122,-0.489936\C,0,2.940556,1.071032,0.573227\H,0,3.949992,-0.62
 679,-0.261726\B,0,3.20439,0.680076,2.059963\N,0,0.11205,5.305664,2.138
 38\C,0,1.277589,5.281649,3.015578\H,0,1.86187,6.211858,2.940103\H,0,0.
 941026,5.167393,4.048123\H,0,1.922482,4.439754,2.777502\C,0,-0.850906,
 6.316801,2.526471\H,0,-1.061533,6.20292,3.591351\H,0,-0.489266,7.34454
 2,2.358992\H,0,-1.786139,6.180615,1.980455\C,0,3.321272,1.699609,3.251
 674\H,0,3.377005,2.73961,2.918263\C,0,3.23536,-0.805973,2.566495\H,0,3
 .213724,-1.54189,1.754872\C,0,4.483072,-1.086183,3.430687\H,0,4.407514
 ,-2.082864,3.883304\H,0,5.348073,-1.125227,2.756156\C,0,4.599285,1.404
 962,4.069417\H,0,5.461948,1.678417,3.447853\H,0,4.636801,2.066395,4.94
 4014\C,0,4.769039,-0.050074,4.528491\H,0,5.794249,-0.190008,4.887504\H
 ,0,4.129955,-0.23982,5.39232\C,0,1.993366,1.539997,4.043225\H,0,2.0271
 36,2.16725,4.942927\H,0,1.186846,1.944635,3.420022\C,0,1.878024,-0.937
 597,3.321563\H,0,1.072103,-0.844798,2.581907\H,0,1.793427,-1.949352,3.
 736096\C,0,1.642682,0.094621,4.437469\H,0,0.588466,0.056216,4.731344\H
 ,0,2.204781,-0.194159,5.326618\\Version=AS64L-G16RevC.02\HF=-1008.7814
 23\RMSD=5.765e-09\Dipole=-0.0949009,0.3662064,0.1307211\Quadrupole=-6.
 4204006,4.2028792,2.2175215,-5.7657766,-1.5346,4.3087387\PG=C01 [X(C22
 H26B1N1O1)]\\@
 The archive entry for this job was punched.


 BLACK HOLES SUCK.
 Job cpu time:       0 days  4 hours  5 minutes 11.5 seconds.
 Elapsed time:       0 days  0 hours  2 minutes 23.0 seconds.
 File lengths (MBytes):  RWF=    462 Int=      0 D2E=      0 Chk=     33 Scr=      1
 Normal termination of Gaussian 16 at Thu Apr 11 14:30:07 2024.
