 Entering Gaussian System, Link 0=/ccc/products/gaussian-16-C.02/system/default/g16/g16
 Input=bicyclo_dimethylaniline_chelpg.gjf
 Output=bicyclo_dimethylaniline_chelpg.log
 Initial command:
 /ccc/products/gaussian-16-C.02/system/default/g16/l1.exe "/ccc/scratch/cont003/gen7343/penasfra/flp/b-n_flp/bicyclo_dimethylaniline/Reactant/Gau-3836077.inp" -scrdir="/ccc/scratch/cont003/gen7343/penasfra/flp/b-n_flp/bicyclo_dimethylaniline/Reactant/"
 Entering Link 1 = /ccc/products/gaussian-16-C.02/system/default/g16/l1.exe PID=   3836126.
  
 Copyright (c) 1988-2021, Gaussian, Inc.  All Rights Reserved.
  
 This is part of the Gaussian(R) 16 program.  It is based on
 the Gaussian(R) 09 system (copyright 2009, Gaussian, Inc.),
 the Gaussian(R) 03 system (copyright 2003, Gaussian, Inc.),
 the Gaussian(R) 98 system (copyright 1998, Gaussian, Inc.),
 the Gaussian(R) 94 system (copyright 1995, Gaussian, Inc.),
 the Gaussian 92(TM) system (copyright 1992, Gaussian, Inc.),
 the Gaussian 90(TM) system (copyright 1990, Gaussian, Inc.),
 the Gaussian 88(TM) system (copyright 1988, Gaussian, Inc.),
 the Gaussian 86(TM) system (copyright 1986, Carnegie Mellon
 University), and the Gaussian 82(TM) system (copyright 1983,
 Carnegie Mellon University). Gaussian is a federally registered
 trademark of Gaussian, Inc.
  
 This software contains proprietary and confidential information,
 including trade secrets, belonging to Gaussian, Inc.
  
 This software is provided under written license and may be
 used, copied, transmitted, or stored only in accord with that
 written license.
  
 The following legend is applicable only to US Government
 contracts under FAR:
  
                    RESTRICTED RIGHTS LEGEND
  
 Use, reproduction and disclosure by the US Government is
 subject to restrictions as set forth in subparagraphs (a)
 and (c) of the Commercial Computer Software - Restricted
 Rights clause in FAR 52.227-19.
  
 Gaussian, Inc.
 340 Quinnipiac St., Bldg. 40, Wallingford CT 06492
  
  
 ---------------------------------------------------------------
 Warning -- This program may not be used in any manner that
 competes with the business of Gaussian, Inc. or will provide
 assistance to any competitor of Gaussian, Inc.  The licensee
 of this program is prohibited from giving any competitor of
 Gaussian, Inc. access to this program.  By using this program,
 the user acknowledges that Gaussian, Inc. is engaged in the
 business of creating and licensing software in the field of
 computational chemistry and represents and warrants to the
 licensee that it is not a competitor of Gaussian, Inc. and that
 it will not use this program in any manner prohibited above.
 ---------------------------------------------------------------
  

 Cite this work as:
 Gaussian 16, Revision C.02,
 M. J. Frisch, G. W. Trucks, H. B. Schlegel, G. E. Scuseria, 
 M. A. Robb, J. R. Cheeseman, G. Scalmani, V. Barone, 
 G. A. Petersson, H. Nakatsuji, X. Li, M. Caricato, A. V. Marenich, 
 J. Bloino, B. G. Janesko, R. Gomperts, B. Mennucci, H. P. Hratchian, 
 J. V. Ortiz, A. F. Izmaylov, J. L. Sonnenberg, D. Williams-Young, 
 F. Ding, F. Lipparini, F. Egidi, J. Goings, B. Peng, A. Petrone, 
 T. Henderson, D. Ranasinghe, V. G. Zakrzewski, J. Gao, N. Rega, 
 G. Zheng, W. Liang, M. Hada, M. Ehara, K. Toyota, R. Fukuda, 
 J. Hasegawa, M. Ishida, T. Nakajima, Y. Honda, O. Kitao, H. Nakai, 
 T. Vreven, K. Throssell, J. A. Montgomery, Jr., J. E. Peralta, 
 F. Ogliaro, M. J. Bearpark, J. J. Heyd, E. N. Brothers, K. N. Kudin, 
 V. N. Staroverov, T. A. Keith, R. Kobayashi, J. Normand, 
 K. Raghavachari, A. P. Rendell, J. C. Burant, S. S. Iyengar, 
 J. Tomasi, M. Cossi, J. M. Millam, M. Klene, C. Adamo, R. Cammi, 
 J. W. Ochterski, R. L. Martin, K. Morokuma, O. Farkas, 
 J. B. Foresman, and D. J. Fox, Gaussian, Inc., Wallingford CT, 2019.
 
 ******************************************
 Gaussian 16:  AS64L-G16RevC.02  7-Dec-2021
                10-Apr-2024 
 ******************************************
 %nprocshared=128
 Will use up to  128 processors via shared memory.
 %mem=30GB
 %chk=bicyclo_dimethylaniline_chelpg.chk
 ----------------------------------------------------------------------
 # wb97xd/genecp scrf=(solvent=toluene,pcm) nosymm pop=(chelpg) scfcyc=
 300
 ----------------------------------------------------------------------
 1/38=1,172=1/1;
 2/12=2,15=1,17=6,18=5,40=1/2;
 3/5=7,11=2,16=1,17=8,25=1,30=1,70=2201,72=13,74=-58/1,2,3;
 4//1;
 5/5=2,7=300,38=5,53=13/2;
 6/7=2,8=2,9=2,10=2,15=8,20=3,28=1/1,2;
 99/5=1,9=1/99;
 ------------------------------
 bicyclo_dimethylaniline_chelpg
 ------------------------------
 Symbolic Z-matrix:
 Charge =  0 Multiplicity = 1
 C                    -0.51422   0.96523   1.0615 
 C                     0.84911   1.22962   1.13588 
 C                     1.43783   2.32969   0.50065 
 C                     0.58575   3.24735  -0.16481 
 C                    -0.78654   2.98085  -0.23692 
 C                    -1.32369   1.84344   0.35683 
 H                    -0.93391   0.08907   1.54204 
 H                     1.48752   0.53516   1.67405 
 H                    -1.45368   3.66712  -0.74226 
 H                    -2.39107   1.66273   0.28371 
 N                     1.13412   4.40395  -0.7431 
 C                     1.92302   5.26962   0.12091 
 H                     2.5089    4.68951   0.83198 
 H                     2.6138    5.86513  -0.48115 
 H                     1.28078   5.95707   0.69531 
 C                     0.30164   5.17025  -1.64701 
 H                    -0.1465    4.51742  -2.39776 
 H                    -0.50139   5.72404  -1.13264 
 H                     0.92957   5.89847  -2.16524 
 B                     2.99469   2.31171   0.39657 
 C                     3.94157   1.74915   1.52624 
 C                     3.80657   2.60392  -0.92231 
 C                     5.02456   2.81827   1.80744 
 H                     3.41456   1.56224   2.46891 
 C                     4.50364   0.38863   1.03277 
 C                     5.0054    3.54525  -0.66743 
 H                     3.18754   3.05001  -1.70498 
 C                     4.21247   1.18116  -1.40263 
 C                     5.8487    3.23726   0.58259 
 H                     5.70185   2.45958   2.59237 
 H                     4.52812   3.70567   2.22358 
 H                     3.68859  -0.34385   1.08809 
 H                     5.27673   0.03467   1.72656 
 C                     5.05887   0.38086  -0.40277 
 H                     5.65896   3.55994  -1.54901 
 H                     4.60937   4.56244  -0.57248 
 H                     3.29443   0.61972  -1.62196 
 H                     4.75243   1.26114  -2.35398 
 H                     6.43712   4.12486   0.83884 
 H                     6.58028   2.45896   0.35953 
 H                     6.08222   0.75925  -0.41121 
 H                     5.12764  -0.65656  -0.74706 
 
                          Input orientation:                          
 ---------------------------------------------------------------------
 Center     Atomic      Atomic             Coordinates (Angstroms)
 Number     Number       Type             X           Y           Z
 ---------------------------------------------------------------------
      1          6           0       -0.514216    0.965226    1.061498
      2          6           0        0.849111    1.229623    1.135883
      3          6           0        1.437832    2.329692    0.500647
      4          6           0        0.585753    3.247351   -0.164805
      5          6           0       -0.786539    2.980846   -0.236916
      6          6           0       -1.323687    1.843440    0.356833
      7          1           0       -0.933905    0.089066    1.542039
      8          1           0        1.487515    0.535164    1.674046
      9          1           0       -1.453675    3.667122   -0.742255
     10          1           0       -2.391066    1.662732    0.283706
     11          7           0        1.134117    4.403951   -0.743102
     12          6           0        1.923017    5.269624    0.120906
     13          1           0        2.508898    4.689511    0.831978
     14          1           0        2.613796    5.865131   -0.481147
     15          1           0        1.280783    5.957074    0.695311
     16          6           0        0.301640    5.170246   -1.647009
     17          1           0       -0.146498    4.517423   -2.397763
     18          1           0       -0.501392    5.724044   -1.132644
     19          1           0        0.929569    5.898466   -2.165236
     20          5           0        2.994688    2.311707    0.396569
     21          6           0        3.941571    1.749153    1.526242
     22          6           0        3.806565    2.603921   -0.922307
     23          6           0        5.024561    2.818270    1.807444
     24          1           0        3.414556    1.562239    2.468906
     25          6           0        4.503638    0.388630    1.032768
     26          6           0        5.005395    3.545251   -0.667430
     27          1           0        3.187535    3.050005   -1.704978
     28          6           0        4.212466    1.181159   -1.402630
     29          6           0        5.848695    3.237262    0.582592
     30          1           0        5.701848    2.459575    2.592365
     31          1           0        4.528116    3.705673    2.223576
     32          1           0        3.688591   -0.343848    1.088094
     33          1           0        5.276731    0.034671    1.726557
     34          6           0        5.058869    0.380856   -0.402766
     35          1           0        5.658964    3.559943   -1.549014
     36          1           0        4.609368    4.562438   -0.572482
     37          1           0        3.294429    0.619720   -1.621958
     38          1           0        4.752427    1.261137   -2.353978
     39          1           0        6.437123    4.124864    0.838843
     40          1           0        6.580282    2.458958    0.359529
     41          1           0        6.082216    0.759247   -0.411209
     42          1           0        5.127640   -0.656562   -0.747063
 ---------------------------------------------------------------------
                    Distance matrix (angstroms):
                    1          2          3          4          5
     1  C    0.000000
     2  C    1.390719   0.000000
     3  C    2.446796   1.400096   0.000000
     4  C    2.814577   2.415031   1.418084   0.000000
     5  C    2.413040   2.761650   2.432247   1.399789   0.000000
     6  C    1.386743   2.388460   2.807688   2.426733   1.390956
     7  H    1.083843   2.155221   3.424914   3.898390   3.398351
     8  H    2.137076   1.086026   2.144683   3.398604   3.847656
     9  H    3.381767   3.843387   3.419698   2.160769   1.082318
    10  H    2.148032   3.378245   3.892603   3.402004   2.140789
    11  N    4.218816   3.699753   2.437561   1.404583   2.443434
    12  C    5.035143   4.301751   3.003799   2.441207   3.564861
    13  H    4.802312   3.849425   2.612606   2.602285   3.862897
    14  H    6.014423   5.216976   3.853069   3.326530   4.465538
    15  H    5.317392   4.767519   3.635995   2.926682   3.741764
    16  C    5.067921   4.855175   3.737928   2.444417   2.822405
    17  H    4.971902   4.928237   3.961950   2.671212   2.727633
    18  H    5.240303   5.212475   4.236727   2.872735   2.899788
    19  H    6.069035   5.718562   4.483460   3.338914   3.895632
    20  B    3.816746   2.514158   1.560435   2.644530   3.891880
    21  C    4.548029   3.160000   2.767233   4.045461   5.194306
    22  C    5.028912   3.856342   2.776850   3.370674   4.659231
    23  C    5.887976   4.517652   3.848513   4.876156   6.162363
    24  H    4.215741   2.910170   2.893176   4.216416   5.194528
    25  C    5.050955   3.751462   3.667430   4.995627   6.026413
    26  C    6.333390   5.088101   3.945820   4.458095   5.835272
    27  H    5.069778   4.105181   2.906044   3.029909   4.237128
    28  C    5.334799   4.214090   3.555304   4.353666   5.439468
    29  C    6.773340   5.415957   4.504011   5.315756   6.690566
    30  H    6.573894   5.213749   4.751209   5.864896   7.097586
    31  H    5.855390   4.566068   3.796270   4.632132   5.901267
    32  H    4.402041   3.246651   3.543843   4.908571   5.730273
    33  H    5.902822   4.623919   4.637577   5.991981   7.021283
    34  C    5.791790   4.561788   4.210229   5.318100   6.399707
    35  H    7.187175   5.981116   4.851039   5.267942   6.603140
    36  H    6.470003   5.307137   4.024351   4.252662   5.632926
    37  H    4.671840   3.735940   3.297940   4.045326   4.914016
    38  H    6.284152   5.236029   4.503025   5.108688   6.174099
    39  H    7.638979   6.300518   5.322587   6.001322   7.392383
    40  H    7.283948   5.912725   5.146010   6.068844   7.409330
    41  H    6.761968   5.477238   4.986791   6.038417   7.221196
    42  H    6.142608   5.040733   4.908073   6.017333   6.961932
                    6          7          8          9         10
     6  C    0.000000
     7  H    2.152782   0.000000
     8  H    3.368901   2.465706   0.000000
     9  H    2.133239   4.276756   4.929328   0.000000
    10  H    1.085035   2.486593   4.271750   2.439032   0.000000
    11  N    3.715760   5.302529   4.575479   2.690648   4.582088
    12  C    4.726043   6.084390   5.001701   3.836028   5.625610
    13  H    4.797352   5.789747   4.360149   4.384686   5.785468
    14  H    5.690341   7.074065   5.858491   4.630739   6.579803
    15  H    4.880555   6.328926   5.513417   3.845483   5.665092
    16  C    4.210072   6.124948   5.824061   2.481752   4.825037
    17  H    4.015440   5.979331   5.925202   2.274298   4.514158
    18  H    4.237192   6.252517   6.225571   2.300038   4.697996
    19  H    5.280268   7.139016   6.619396   3.561407   5.913153
    20  B    4.343871   4.656831   2.656995   4.787693   5.425887
    21  C    5.394381   5.150379   2.741898   6.159007   6.453964
    22  C    5.341724   5.905045   4.049543   5.369631   6.383646
    23  C    6.584438   6.559140   4.212014   7.013491   7.658235
    24  H    5.195274   4.683848   2.323827   6.200142   6.204067
    25  C    6.044094   5.469549   3.087022   7.027716   7.051338
    26  C    6.633442   7.218189   5.188315   6.460653   7.691305
    27  H    5.104703   6.024662   4.542279   4.780010   6.082777
    28  C    5.846650   6.029003   4.160361   6.222641   6.832443
    29  C    7.310046   7.538922   5.245236   7.434017   8.394173
    30  H    7.398335   7.124305   4.723057   7.986199   8.453409
    31  H    6.418430   6.586199   4.427117   6.676785   7.470728
    32  H    5.517418   4.664863   2.441462   6.773548   6.452568
    33  H    6.979492   6.213615   3.822487   8.036672   7.970415
    34  C    6.591901   6.307198   4.134190   7.302604   7.590519
    35  H    7.438820   8.066444   6.077696   7.159049   8.471202
    36  H    6.592247   7.430352   5.568823   6.131142   7.625446
    37  H    5.171083   5.307662   3.759751   5.710081   6.086401
    38  H    6.678827   6.991929   5.235615   6.848512   7.625493
    39  H    8.103542   8.432924   6.171072   8.060651   9.181895
    40  H    7.927900   7.967291   5.600466   8.198662   9.006931
    41  H    7.524145   7.313705   5.050721   8.084243   8.549602
    42  H    7.006298   6.522137   4.531279   7.874514   7.935525
                   11         12         13         14         15
    11  N    0.000000
    12  C    1.455425   0.000000
    13  H    2.110082   1.088766   0.000000
    14  H    2.095976   1.092828   1.765611   0.000000
    15  H    2.121965   1.102267   1.770215   1.780289   0.000000
    16  C    1.448197   2.400888   3.353874   2.681075   2.657872
    17  H    2.095413   3.345503   4.184730   3.620629   3.698220
    18  H    2.137587   2.766883   3.740567   3.185710   2.563566
    19  H    2.073133   2.570764   3.597102   2.381992   2.882623
    20  B    3.022922   3.158123   2.465669   3.679985   4.039235
    21  C    4.481035   4.294560   3.343690   4.768005   5.047459
    22  C    3.227104   3.426663   3.018467   3.500402   4.498877
    23  C    4.914796   4.298037   3.283540   4.509190   5.010469
    24  H    4.857234   4.634921   3.644116   5.278154   5.197423
    25  C    5.534455   5.595999   4.745196   5.987947   6.442689
    26  C    3.966092   3.618838   3.128906   3.337108   4.641841
    27  H    2.641004   3.139995   3.095912   3.122799   4.224706
    28  C    4.505286   4.927300   4.494903   5.034329   5.983769
    29  C    5.034469   4.444614   3.650406   4.301373   5.317509
    30  H    5.980811   5.318275   4.273933   5.529951   5.947868
    31  H    4.561579   3.695092   2.642295   3.955175   4.236694
    32  H    5.693875   5.963537   5.176096   6.493776   6.756733
    33  H    6.507770   6.421078   5.488962   6.779339   7.218443
    34  C    5.630702   5.831625   5.156690   6.005148   6.824508
    35  H    4.672910   4.434968   4.107063   3.965763   5.472815
    36  H    3.483044   2.863107   2.529947   2.384881   3.825152
    37  H    4.445193   5.151694   4.816852   5.411012   6.157260
    38  H    5.056122   5.495323   5.190134   5.410915   6.588042
    39  H    5.540967   4.712013   3.968605   4.403264   5.474070
    40  H    5.887232   5.444897   4.666341   5.295447   6.358793
    41  H    6.154486   6.158375   5.455373   6.172915   7.162091
    42  H    6.446474   6.792839   6.158870   6.994469   7.785816
                   16         17         18         19         20
    16  C    0.000000
    17  H    1.091163   0.000000
    18  H    1.102780   1.783931   0.000000
    19  H    1.092318   1.766145   1.773223   0.000000
    20  B    4.427185   4.747686   5.119093   4.867484   0.000000
    21  C    5.917981   6.306619   6.527584   6.317908   1.577725
    22  C    4.404057   4.633052   5.323336   4.547088   1.576061
    23  C    6.306427   6.878280   6.901000   6.483730   2.523402
    24  H    6.296723   6.715555   6.754734   6.815666   2.243339
    25  C    6.906652   7.102059   7.629284   7.304758   2.525847
    26  C    5.072031   5.520976   5.940393   4.938968   2.587792
    27  H    3.581504   3.707970   4.591975   3.663875   2.235794
    28  C    5.591699   5.578666   6.552187   5.797583   2.449130
    29  C    6.283102   6.816426   7.032050   6.231402   3.006096
    30  H    7.381211   7.958597   7.938050   7.565407   3.488854
    31  H    5.915192   6.623272   6.374479   6.084370   2.762697
    32  H    7.025486   7.105706   7.701100   7.560611   2.830491
    33  H    7.906112   8.155764   8.598296   8.272120   3.487332
    34  C    6.864228   6.941689   7.745895   7.113469   2.937340
    35  H    5.594962   5.944790   6.542682   5.311836   3.527287
    36  H    4.481134   5.094305   5.270956   4.226435   2.934628
    37  H    5.446531   5.256799   6.379797   5.809722   2.650871
    38  H    5.965773   5.882583   7.000844   6.012877   3.429118
    39  H    6.701972   7.346685   7.388310   6.519456   3.915802
    40  H    7.127315   7.555760   7.939614   7.080622   3.588807
    41  H    7.375579   7.541032   8.277293   7.485850   3.549009
    42  H    7.619178   7.570433   8.517441   7.912231   3.829882
                   21         22         23         24         25
    21  C    0.000000
    22  C    2.596969   0.000000
    23  C    1.547564   2.996832   0.000000
    24  H    1.096037   3.569187   2.146453   0.000000
    25  C    1.552565   3.035744   2.602813   2.150802   0.000000
    26  C    3.028182   1.545399   2.579510   4.037290   3.620316
    27  H    3.563926   1.093052   3.970576   4.436924   4.038601
    28  C    2.995712   1.555544   3.693806   3.971231   2.577605
    29  C    2.596549   2.614601   1.534605   3.505555   3.182223
    30  H    2.177129   3.995729   1.097033   2.460114   2.856022
    31  H    2.158305   3.410436   1.098684   2.427862   3.524400
    32  H    2.153283   3.570010   3.507317   2.369579   1.097218
    33  H    2.182253   3.972268   2.796168   2.520365   1.097407
    34  C    2.615657   2.603883   3.290470   3.513678   1.539188
    35  H    3.960505   2.176723   3.495477   5.017158   4.249424
    36  H    3.572837   2.145381   2.979690   4.436081   4.473106
    37  H    3.406696   2.165375   4.425808   4.199755   2.926288
    38  H    3.993965   2.178854   4.451534   5.014057   3.506168
    39  H    3.513446   3.512087   2.154230   4.284864   4.211344
    40  H    2.971168   3.059023   2.155419   3.908375   3.008647
    41  H    3.052211   2.973656   3.206342   4.007027   2.171252
    42  H    3.515983   3.522314   4.313999   4.266168   2.156294
                   26         27         28         29         30
    26  C    0.000000
    27  H    2.150904   0.000000
    28  C    2.599651   2.152785   0.000000
    29  C    1.539015   3.514230   3.293313   0.000000
    30  H    3.505710   5.013735   4.451134   2.159988   0.000000
    31  H    2.934527   4.202451   4.429693   2.157815   1.751117
    32  H    4.465527   4.423861   2.967119   4.212592   3.764999
    33  H    4.257813   5.023187   3.498415   3.448534   2.609695
    34  C    3.175894   3.510271   1.535126   3.123109   3.702068
    35  H    1.097524   2.528304   2.787902   2.164224   4.285285
    36  H    1.095683   2.364659   3.504244   2.150865   3.953707
    37  H    3.520974   2.434051   1.098231   4.270344   5.190496
    38  H    2.850546   2.463765   1.096821   3.705444   5.177254
    39  H    2.157465   4.264525   4.317256   1.095331   2.527579
    40  H    2.171393   4.015253   3.216291   1.091207   2.399417
    41  H    2.997834   3.911597   2.157983   2.680062   3.472355
    42  H    4.204345   4.291882   2.155117   4.177292   4.603456
                   31         32         33         34         35
    31  H    0.000000
    32  H    4.288676   0.000000
    33  H    3.779379   1.753026   0.000000
    34  C    4.270103   2.150702   2.168254   0.000000
    35  H    3.941128   5.106495   4.827319   3.432287   0.000000
    36  H    2.925507   5.260892   5.121682   4.209095   1.749361
    37  H    5.082639   2.903138   3.935017   2.157947   3.773759
    38  H    5.194235   3.944057   4.293004   2.162413   2.598901
    39  H    2.395311   5.252232   4.343297   4.178370   2.574204
    40  H    3.039795   4.092482   3.073301   2.685945   2.388207
    41  H    4.247204   3.032189   2.396635   1.091096   3.052481
    42  H    5.311612   2.352967   2.572708   1.095220   4.324852
                   36         37         38         39         40
    36  H    0.000000
    37  H    4.286664   0.000000
    38  H    3.754035   1.753005   0.000000
    39  H    2.350319   5.312071   4.607954   0.000000
    40  H    3.029484   4.255105   3.484099   1.739390   0.000000
    41  H    4.081611   3.042554   2.407194   3.607765   1.931612
    42  H    5.247575   2.398958   2.529927   5.204986   3.611257
                   41         42
    41  H    0.000000
    42  H    1.740267   0.000000
 Symmetry turned off by external request.
 Stoichiometry    C16H24BN
 Framework group  C1[X(C16H24BN)]
 Deg. of freedom   120
 Full point group                 C1      NOp   1
 Rotational constants (GHZ):           0.6575363           0.3366701           0.2700553
 General basis read from cards:  (5D, 7F)
 ======================================================================================================
                                       Pseudopotential Parameters
 ======================================================================================================
  Center     Atomic      Valence      Angular      Power
  Number     Number     Electrons     Momentum     of R      Exponent        Coefficient   SO-Coeffient
 ======================================================================================================
    1          6
                                   No pseudopotential on this center.
    2          6
                                   No pseudopotential on this center.
    3          6
                                   No pseudopotential on this center.
    4          6
                                   No pseudopotential on this center.
    5          6
                                   No pseudopotential on this center.
    6          6
                                   No pseudopotential on this center.
    7          1
                                   No pseudopotential on this center.
    8          1
                                   No pseudopotential on this center.
    9          1
                                   No pseudopotential on this center.
   10          1
                                   No pseudopotential on this center.
   11          7
                                   No pseudopotential on this center.
   12          6
                                   No pseudopotential on this center.
   13          1
                                   No pseudopotential on this center.
   14          1
                                   No pseudopotential on this center.
   15          1
                                   No pseudopotential on this center.
   16          6
                                   No pseudopotential on this center.
   17          1
                                   No pseudopotential on this center.
   18          1
                                   No pseudopotential on this center.
   19          1
                                   No pseudopotential on this center.
   20          5
                                   No pseudopotential on this center.
   21          6
                                   No pseudopotential on this center.
   22          6
                                   No pseudopotential on this center.
   23          6
                                   No pseudopotential on this center.
   24          1
                                   No pseudopotential on this center.
   25          6
                                   No pseudopotential on this center.
   26          6
                                   No pseudopotential on this center.
   27          1
                                   No pseudopotential on this center.
   28          6
                                   No pseudopotential on this center.
   29          6
                                   No pseudopotential on this center.
   30          1
                                   No pseudopotential on this center.
   31          1
                                   No pseudopotential on this center.
   32          1
                                   No pseudopotential on this center.
   33          1
                                   No pseudopotential on this center.
   34          6
                                   No pseudopotential on this center.
   35          1
                                   No pseudopotential on this center.
   36          1
                                   No pseudopotential on this center.
   37          1
                                   No pseudopotential on this center.
   38          1
                                   No pseudopotential on this center.
   39          1
                                   No pseudopotential on this center.
   40          1
                                   No pseudopotential on this center.
   41          1
                                   No pseudopotential on this center.
   42          1
                                   No pseudopotential on this center.
 ======================================================================================================
   564 basis functions,   864 primitive gaussians,   582 cartesian basis functions
    66 alpha electrons       66 beta electrons
       nuclear repulsion energy      1361.2121803789 Hartrees.
 NAtoms=   42 NActive=   42 NUniq=   42 SFac= 1.00D+00 NAtFMM=   60 NAOKFM=F Big=F
 Integral buffers will be    131072 words long.
 Raffenetti 2 integral format.
 Two-electron integral symmetry is turned off.
 Nuclear repulsion after empirical dispersion term =     1361.1705833445 Hartrees.
 ------------------------------------------------------------------------------
 Polarizable Continuum Model (PCM)
 =================================
 Model                : PCM.
 Atomic radii         : UFF (Universal Force Field).
 Polarization charges : Total charges.
 Charge compensation  : None.
 Solution method      : On-the-fly selection.
 Cavity type          : Scaled VdW (van der Waals Surface) (Alpha=1.100).
 Cavity algorithm     : GePol (No added spheres)
                        Default sphere list used, NSphG=   42.
                        Lebedev-Laikov grids with approx.  5.0 points / Ang**2.
                        Smoothing algorithm: York/Karplus (Gamma=1.0000).
                        Polarization charges: spherical gaussians, with
                                              point-specific exponents (IZeta= 3).
                        Self-potential: point-specific (ISelfS= 7).
                        Self-field    : sphere-specific E.n sum rule (ISelfD= 2).
 Solvent              : Toluene, Eps=   2.374100 Eps(inf)=   2.238315
 ------------------------------------------------------------------------------
 One-electron integrals computed using PRISM.
   1 Symmetry operations used in ECPInt.
 ECPInt:  NShTT=   26106 NPrTT=   81399 LenC2=   24586 LenP2D=   55725.
 LDataN:  DoStor=T MaxTD1= 4 Len=   56
 Number of processors reduced to  77 by ecpmxn.
 NBasis=   564 RedAO= T EigKep=  1.55D-06  NBF=   564
 NBsUse=   561 1.00D-06 EigRej=  9.89D-07 NBFU=   561
 ExpMin= 3.15D-02 ExpMax= 6.29D+03 ExpMxC= 9.49D+02 IAcc=3 IRadAn=         5 AccDes= 0.00D+00
 Harris functional with IExCor= 4639 and IRadAn=       5 diagonalized for initial guess.
 HarFok:  IExCor= 4639 AccDes= 0.00D+00 IRadAn=         5 IDoV= 1 UseB2=F ITyADJ=14
 ICtDFT=  3500011 ScaDFX=  1.000000  1.000000  1.000000  1.000000
 FoFCou: FMM=F IPFlag=           0 FMFlag=      100000 FMFlg1=           0
         NFxFlg=           0 DoJE=T BraDBF=F KetDBF=T FulRan=T
         wScrn=  0.000000 ICntrl=       500 IOpCl=  0 I1Cent=   200000004 NGrid=           0
         NMat0=    1 NMatS0=      1 NMatT0=    0 NMatD0=    1 NMtDS0=    0 NMtDT0=    0
 Symmetry not used in FoFCou.
 Requested convergence on RMS density matrix=1.00D-08 within 300 cycles.
 Requested convergence on MAX density matrix=1.00D-06.
 Requested convergence on             energy=1.00D-06.
 No special actions if energy rises.
 Inv3:  Mode=1 IEnd=    20000172.
 Iteration    1 A*A^-1 deviation from unit magnitude is 5.66D-15 for   2581.
 Iteration    1 A*A^-1 deviation from orthogonality  is 2.12D-15 for   2579   2010.
 Iteration    1 A^-1*A deviation from unit magnitude is 5.66D-15 for   2581.
 Iteration    1 A^-1*A deviation from orthogonality  is 3.03D-15 for   2558   1960.
 Error on total polarization charges =  0.01083
 SCF Done:  E(RwB97XD) =  -703.728819754     A.U. after   16 cycles
            NFock= 16  Conv=0.67D-08     -V/T= 2.0048

 **********************************************************************

            Population analysis using the SCF Density.

 **********************************************************************

 Alpha  occ. eigenvalues --  -14.44334 -10.32688 -10.30964 -10.30630 -10.28972
 Alpha  occ. eigenvalues --  -10.28800 -10.28106 -10.27818 -10.27454 -10.27354
 Alpha  occ. eigenvalues --  -10.27305 -10.27044 -10.26881 -10.26832 -10.26516
 Alpha  occ. eigenvalues --  -10.25310 -10.24889  -6.82684  -1.04894  -0.94853
 Alpha  occ. eigenvalues --   -0.92595  -0.86674  -0.85259  -0.84828  -0.84567
 Alpha  occ. eigenvalues --   -0.81364  -0.77750  -0.76396  -0.75188  -0.69693
 Alpha  occ. eigenvalues --   -0.67452  -0.66709  -0.65454  -0.63425  -0.61507
 Alpha  occ. eigenvalues --   -0.57967  -0.56590  -0.56373  -0.55818  -0.54877
 Alpha  occ. eigenvalues --   -0.53094  -0.51798  -0.51303  -0.50602  -0.49990
 Alpha  occ. eigenvalues --   -0.49733  -0.48760  -0.48320  -0.47322  -0.46689
 Alpha  occ. eigenvalues --   -0.46319  -0.45535  -0.44387  -0.43502  -0.42831
 Alpha  occ. eigenvalues --   -0.42179  -0.41263  -0.41114  -0.40324  -0.39916
 Alpha  occ. eigenvalues --   -0.36567  -0.36338  -0.34623  -0.33863  -0.32185
 Alpha  occ. eigenvalues --   -0.27535
 Alpha virt. eigenvalues --    0.02199   0.03694   0.04549   0.04740   0.05169
 Alpha virt. eigenvalues --    0.05958   0.06049   0.06256   0.06664   0.06904
 Alpha virt. eigenvalues --    0.07448   0.07826   0.08017   0.08664   0.08866
 Alpha virt. eigenvalues --    0.09615   0.09815   0.09956   0.10238   0.10279
 Alpha virt. eigenvalues --    0.10671   0.11210   0.11665   0.12497   0.12797
 Alpha virt. eigenvalues --    0.13111   0.13786   0.13866   0.14722   0.14797
 Alpha virt. eigenvalues --    0.15021   0.15798   0.15911   0.16204   0.16559
 Alpha virt. eigenvalues --    0.17057   0.17482   0.17666   0.17875   0.18029
 Alpha virt. eigenvalues --    0.18203   0.18487   0.18839   0.18953   0.19172
 Alpha virt. eigenvalues --    0.19404   0.19593   0.19883   0.20089   0.20318
 Alpha virt. eigenvalues --    0.20593   0.20666   0.20960   0.21217   0.21325
 Alpha virt. eigenvalues --    0.21734   0.22278   0.22499   0.22517   0.22970
 Alpha virt. eigenvalues --    0.23310   0.23482   0.23771   0.24042   0.24242
 Alpha virt. eigenvalues --    0.24447   0.24670   0.24833   0.25026   0.25711
 Alpha virt. eigenvalues --    0.26131   0.26386   0.26562   0.26761   0.26983
 Alpha virt. eigenvalues --    0.27150   0.27198   0.27554   0.27800   0.28445
 Alpha virt. eigenvalues --    0.28704   0.29239   0.29455   0.29704   0.30038
 Alpha virt. eigenvalues --    0.30256   0.30672   0.30953   0.31378   0.31642
 Alpha virt. eigenvalues --    0.31877   0.32436   0.32887   0.33121   0.33556
 Alpha virt. eigenvalues --    0.33917   0.34253   0.34642   0.34798   0.35422
 Alpha virt. eigenvalues --    0.35530   0.36067   0.36126   0.36561   0.36889
 Alpha virt. eigenvalues --    0.37289   0.37714   0.37785   0.38393   0.38840
 Alpha virt. eigenvalues --    0.39218   0.39926   0.40058   0.40113   0.40680
 Alpha virt. eigenvalues --    0.41023   0.41301   0.41385   0.41703   0.42136
 Alpha virt. eigenvalues --    0.42469   0.43305   0.43515   0.43916   0.44379
 Alpha virt. eigenvalues --    0.44927   0.45187   0.46335   0.46630   0.47157
 Alpha virt. eigenvalues --    0.48473   0.48662   0.48954   0.49883   0.50166
 Alpha virt. eigenvalues --    0.50632   0.51255   0.51732   0.53052   0.55758
 Alpha virt. eigenvalues --    0.58000   0.58490   0.58758   0.59478   0.59940
 Alpha virt. eigenvalues --    0.60615   0.61673   0.62112   0.62702   0.63121
 Alpha virt. eigenvalues --    0.64407   0.64567   0.65649   0.66351   0.67317
 Alpha virt. eigenvalues --    0.67742   0.68423   0.68893   0.69178   0.70286
 Alpha virt. eigenvalues --    0.70399   0.71082   0.71868   0.72708   0.72995
 Alpha virt. eigenvalues --    0.73618   0.73764   0.74363   0.74714   0.75245
 Alpha virt. eigenvalues --    0.75649   0.75915   0.76455   0.77097   0.78066
 Alpha virt. eigenvalues --    0.78215   0.79150   0.79499   0.80031   0.80345
 Alpha virt. eigenvalues --    0.81137   0.81548   0.81982   0.82092   0.82381
 Alpha virt. eigenvalues --    0.83329   0.83501   0.84063   0.84653   0.85261
 Alpha virt. eigenvalues --    0.85784   0.86215   0.86377   0.86712   0.87164
 Alpha virt. eigenvalues --    0.87738   0.88401   0.88941   0.89446   0.89581
 Alpha virt. eigenvalues --    0.90166   0.90646   0.91204   0.91469   0.92551
 Alpha virt. eigenvalues --    0.93460   0.93892   0.95526   0.95992   0.96478
 Alpha virt. eigenvalues --    0.97191   0.98382   0.99596   1.00344   1.00483
 Alpha virt. eigenvalues --    1.02024   1.03426   1.03594   1.04792   1.05629
 Alpha virt. eigenvalues --    1.06852   1.07407   1.08467   1.09665   1.10546
 Alpha virt. eigenvalues --    1.11466   1.13406   1.14632   1.14925   1.15942
 Alpha virt. eigenvalues --    1.16577   1.17974   1.18695   1.19946   1.20544
 Alpha virt. eigenvalues --    1.21872   1.24223   1.25321   1.27007   1.28111
 Alpha virt. eigenvalues --    1.29176   1.31506   1.33085   1.34397   1.36207
 Alpha virt. eigenvalues --    1.36599   1.38433   1.39016   1.39957   1.40984
 Alpha virt. eigenvalues --    1.44630   1.44988   1.47203   1.48800   1.50890
 Alpha virt. eigenvalues --    1.51128   1.53978   1.54757   1.56884   1.58620
 Alpha virt. eigenvalues --    1.59286   1.59952   1.61859   1.62366   1.62614
 Alpha virt. eigenvalues --    1.64042   1.64471   1.65042   1.65403   1.65726
 Alpha virt. eigenvalues --    1.66084   1.66664   1.67896   1.68415   1.68882
 Alpha virt. eigenvalues --    1.69468   1.69871   1.71091   1.72278   1.73075
 Alpha virt. eigenvalues --    1.73486   1.73881   1.74891   1.75341   1.76011
 Alpha virt. eigenvalues --    1.76482   1.76724   1.77450   1.77826   1.78749
 Alpha virt. eigenvalues --    1.80111   1.80749   1.81000   1.81788   1.82655
 Alpha virt. eigenvalues --    1.83484   1.83697   1.84236   1.84934   1.85052
 Alpha virt. eigenvalues --    1.85242   1.85984   1.86359   1.88128   1.88946
 Alpha virt. eigenvalues --    1.90152   1.90735   1.90961   1.92034   1.93783
 Alpha virt. eigenvalues --    1.94312   1.95037   1.95927   1.97207   1.97787
 Alpha virt. eigenvalues --    1.98820   1.99627   2.00624   2.01089   2.02208
 Alpha virt. eigenvalues --    2.02334   2.03048   2.04391   2.05450   2.07450
 Alpha virt. eigenvalues --    2.07998   2.09172   2.10035   2.10329   2.11768
 Alpha virt. eigenvalues --    2.13800   2.14345   2.15437   2.15904   2.18137
 Alpha virt. eigenvalues --    2.18733   2.19475   2.20277   2.22654   2.23217
 Alpha virt. eigenvalues --    2.25273   2.25391   2.25775   2.27447   2.29252
 Alpha virt. eigenvalues --    2.30526   2.31685   2.32977   2.34567   2.36451
 Alpha virt. eigenvalues --    2.38260   2.38792   2.39669   2.40913   2.41734
 Alpha virt. eigenvalues --    2.42683   2.43275   2.44983   2.46079   2.47756
 Alpha virt. eigenvalues --    2.48173   2.49050   2.52111   2.53330   2.54429
 Alpha virt. eigenvalues --    2.54641   2.55543   2.56923   2.57438   2.59005
 Alpha virt. eigenvalues --    2.60422   2.61806   2.63024   2.64225   2.64917
 Alpha virt. eigenvalues --    2.65873   2.66755   2.68189   2.69631   2.70046
 Alpha virt. eigenvalues --    2.71104   2.71969   2.73051   2.73763   2.74825
 Alpha virt. eigenvalues --    2.75664   2.77266   2.78440   2.79218   2.79739
 Alpha virt. eigenvalues --    2.81234   2.81571   2.82738   2.83776   2.84049
 Alpha virt. eigenvalues --    2.84805   2.85772   2.86183   2.87014   2.87741
 Alpha virt. eigenvalues --    2.88628   2.89433   2.91927   2.92777   2.92964
 Alpha virt. eigenvalues --    2.94655   2.95356   2.95970   2.96248   2.97244
 Alpha virt. eigenvalues --    2.98062   2.98921   3.00030   3.01819   3.02838
 Alpha virt. eigenvalues --    3.03747   3.04241   3.06503   3.08152   3.09991
 Alpha virt. eigenvalues --    3.10502   3.11328   3.12481   3.13419   3.14433
 Alpha virt. eigenvalues --    3.16206   3.16930   3.19539   3.22153   3.24855
 Alpha virt. eigenvalues --    3.27409   3.29636   3.30613   3.34750   3.37128
 Alpha virt. eigenvalues --    3.38130   3.46718   3.49142   3.50031   3.51573
 Alpha virt. eigenvalues --    3.55103   3.56388   3.58571   3.61029   3.67644
 Alpha virt. eigenvalues --    3.69283   3.70525   3.77271   3.83871   3.84810
 Alpha virt. eigenvalues --    3.86458   3.87937   3.90204   3.91465   3.92042
 Alpha virt. eigenvalues --    3.93884   3.94858   4.03516   4.04873   4.05479
 Alpha virt. eigenvalues --    4.05800   4.11976   4.13669   4.17876   4.19810
 Alpha virt. eigenvalues --    4.22825   4.25700   4.27247   4.29880   4.33561
 Alpha virt. eigenvalues --    4.38651   4.44170   4.47318   4.53589   4.95913
 Alpha virt. eigenvalues --    4.98996   5.15039  14.95946  23.79497  23.95320
 Alpha virt. eigenvalues --   24.05915  24.08329  24.08507  24.09655  24.10524
 Alpha virt. eigenvalues --   24.10599  24.11678  24.12639  24.14787  24.17449
 Alpha virt. eigenvalues --   24.19525  24.22546  24.24336  24.33502  35.74978
          Condensed to atoms (all electrons):
               1          2          3          4          5          6
     1  C    9.519987  -1.693876  -1.783384   2.273664  -1.221537  -0.547354
     2  C   -1.693876   7.603568   0.304764  -1.661186   1.358534  -0.281697
     3  C   -1.783384   0.304764   7.293212  -0.200935  -0.441220   1.255588
     4  C    2.273664  -1.661186  -0.200935   9.932954  -1.173933  -1.807193
     5  C   -1.221537   1.358534  -0.441220  -1.173933   8.221094  -0.584242
     6  C   -0.547354  -0.281697   1.255588  -1.807193  -0.584242   8.163150
     7  H    0.447626  -0.040404   0.007248   0.029258  -0.044179  -0.054038
     8  H   -0.139833   0.454214  -0.047522  -0.013590   0.046042  -0.019749
     9  H   -0.019501   0.050756   0.013461  -0.065324   0.498407  -0.096048
    10  H   -0.058254  -0.032643   0.044828   0.027734  -0.072507   0.421804
    11  N    0.098861   0.010395  -0.390793  -0.409200  -0.169917  -0.038513
    12  C   -0.002727   0.043681  -0.050942  -0.294216   0.008187  -0.002974
    13  H   -0.035962  -0.042963  -0.010093   0.103896   0.020261   0.039820
    14  H   -0.005385  -0.000520   0.003645   0.034595   0.008372   0.016046
    15  H    0.004145  -0.005780   0.010096   0.011009  -0.007118  -0.005370
    16  C    0.062148   0.029021  -0.134014   0.041607  -0.101202  -0.374832
    17  H    0.013918  -0.009534  -0.002989   0.035302  -0.028799  -0.024195
    18  H   -0.004233  -0.001970   0.009049  -0.038603   0.013110   0.039215
    19  H    0.000429   0.005687  -0.005088   0.022597   0.029836  -0.020151
    20  B   -0.254753  -0.060038  -0.155323  -0.751191  -0.535583   0.350436
    21  C   -0.435188  -0.053626  -0.412524  -0.046156  -0.027746   0.222713
    22  C    0.032547   0.002895  -0.178813  -0.053235  -0.105895   0.011458
    23  C   -0.011535   0.302332   0.091609  -0.196709   0.118769  -0.058953
    24  H    0.028473  -0.004464   0.054830   0.009084   0.001553  -0.012314
    25  C    0.148760  -0.167088   0.441128   0.197250   0.058462  -0.090289
    26  C    0.014401   0.318751   0.140467  -0.438901   0.168496  -0.041591
    27  H   -0.005446   0.002847   0.013717   0.056424   0.035479   0.009481
    28  C    0.054316  -0.386913   0.303786   0.596810   0.001694  -0.046781
    29  C   -0.020429  -0.238414   0.007414   0.225112  -0.040755   0.023537
    30  H    0.002443   0.006986   0.002710   0.003201   0.001364  -0.000311
    31  H    0.004689   0.039370  -0.002335  -0.026864   0.009821  -0.007525
    32  H   -0.005752  -0.033613   0.029253   0.019140   0.006833  -0.007544
    33  H   -0.001582   0.007252   0.006439   0.000137   0.001840  -0.000355
    34  C    0.040287   0.226112  -0.200788  -0.175099  -0.009052  -0.003468
    35  H    0.000481   0.006056   0.014468  -0.008713   0.002295  -0.001075
    36  H    0.006061   0.021984  -0.000769  -0.023666   0.008034  -0.006472
    37  H   -0.001825  -0.052736   0.041340   0.065278   0.002006  -0.007104
    38  H    0.000899  -0.006104   0.017971   0.008438   0.001290  -0.001870
    39  H   -0.000548  -0.005667  -0.008615   0.004726  -0.000172   0.000300
    40  H   -0.002171  -0.007540  -0.013244   0.005816  -0.000320   0.000795
    41  H    0.002101   0.002960  -0.013832  -0.001623  -0.000567  -0.000264
    42  H    0.001069   0.006770  -0.019649  -0.005364  -0.000644   0.000329
               7          8          9         10         11         12
     1  C    0.447626  -0.139833  -0.019501  -0.058254   0.098861  -0.002727
     2  C   -0.040404   0.454214   0.050756  -0.032643   0.010395   0.043681
     3  C    0.007248  -0.047522   0.013461   0.044828  -0.390793  -0.050942
     4  C    0.029258  -0.013590  -0.065324   0.027734  -0.409200  -0.294216
     5  C   -0.044179   0.046042   0.498407  -0.072507  -0.169917   0.008187
     6  C   -0.054038  -0.019749  -0.096048   0.421804  -0.038513  -0.002974
     7  H    0.470918  -0.009336   0.001086  -0.008904   0.000782  -0.000069
     8  H   -0.009336   0.539900   0.000180   0.001026   0.005021   0.003282
     9  H    0.001086   0.000180   0.501883  -0.010113  -0.033417  -0.003629
    10  H   -0.008904   0.001026  -0.010113   0.471832  -0.008950  -0.000412
    11  N    0.000782   0.005021  -0.033417  -0.008950   7.317724   0.258664
    12  C   -0.000069   0.003282  -0.003629  -0.000412   0.258664   5.660856
    13  H   -0.001314  -0.005596   0.000227   0.000999  -0.126961   0.356929
    14  H   -0.000030   0.000139  -0.000283   0.000188  -0.061379   0.345286
    15  H    0.000155   0.000675   0.001363  -0.000252  -0.085298   0.466406
    16  C   -0.000745   0.001943   0.003925  -0.001133   0.332828  -0.204755
    17  H    0.000268  -0.000579  -0.006452  -0.000432  -0.053899   0.013829
    18  H   -0.000115   0.000063  -0.005617   0.001047  -0.055087  -0.009837
    19  H   -0.000065   0.000088   0.005099  -0.000063  -0.073017   0.002974
    20  B   -0.015514  -0.047412  -0.026619  -0.001608   0.240134  -0.255755
    21  C   -0.009722   0.001091  -0.004938   0.003284  -0.033777  -0.045401
    22  C   -0.002502   0.017831  -0.001787   0.000141  -0.022565   0.134021
    23  C   -0.000679   0.023299   0.002915  -0.001157   0.011868   0.024812
    24  H    0.001156   0.011985  -0.000082  -0.000339   0.005027   0.002195
    25  C    0.007099  -0.006584   0.001026  -0.001406   0.003223  -0.010474
    26  C    0.000062   0.007117   0.002295  -0.000598   0.075029   0.000967
    27  H    0.000120  -0.002913   0.001246   0.000248  -0.029571   0.020867
    28  C    0.004900  -0.028285   0.002076  -0.000649  -0.066176  -0.062753
    29  C   -0.000291  -0.008177  -0.000934   0.000427  -0.039792  -0.001551
    30  H    0.000027  -0.001413  -0.000001  -0.000004  -0.000999  -0.001084
    31  H    0.000138   0.001854   0.000343  -0.000149   0.000141   0.020273
    32  H    0.000184  -0.001609   0.000043  -0.000296   0.002458  -0.004632
    33  H    0.000003  -0.001236   0.000011  -0.000013   0.001172   0.000079
    34  C   -0.001675   0.013360  -0.000488  -0.000227   0.008464   0.016463
    35  H   -0.000012   0.000740   0.000079  -0.000008  -0.000887  -0.001135
    36  H    0.000062  -0.000072   0.000312  -0.000159  -0.001068   0.038099
    37  H    0.000361  -0.000435   0.000107   0.000192  -0.007508  -0.009626
    38  H    0.000091   0.000096   0.000096  -0.000021  -0.001935   0.002432
    39  H   -0.000009  -0.000513  -0.000018   0.000007  -0.000216  -0.002686
    40  H    0.000016  -0.001115   0.000002   0.000007  -0.001826   0.003206
    41  H   -0.000064   0.000442  -0.000052  -0.000001   0.000226  -0.002586
    42  H   -0.000022  -0.001081  -0.000009  -0.000009   0.000116   0.000488
              13         14         15         16         17         18
     1  C   -0.035962  -0.005385   0.004145   0.062148   0.013918  -0.004233
     2  C   -0.042963  -0.000520  -0.005780   0.029021  -0.009534  -0.001970
     3  C   -0.010093   0.003645   0.010096  -0.134014  -0.002989   0.009049
     4  C    0.103896   0.034595   0.011009   0.041607   0.035302  -0.038603
     5  C    0.020261   0.008372  -0.007118  -0.101202  -0.028799   0.013110
     6  C    0.039820   0.016046  -0.005370  -0.374832  -0.024195   0.039215
     7  H   -0.001314  -0.000030   0.000155  -0.000745   0.000268  -0.000115
     8  H   -0.005596   0.000139   0.000675   0.001943  -0.000579   0.000063
     9  H    0.000227  -0.000283   0.001363   0.003925  -0.006452  -0.005617
    10  H    0.000999   0.000188  -0.000252  -0.001133  -0.000432   0.001047
    11  N   -0.126961  -0.061379  -0.085298   0.332828  -0.053899  -0.055087
    12  C    0.356929   0.345286   0.466406  -0.204755   0.013829  -0.009837
    13  H    0.776039   0.011100  -0.080304  -0.005514  -0.003732  -0.010001
    14  H    0.011100   0.535950  -0.044100  -0.020526  -0.004419   0.003984
    15  H   -0.080304  -0.044100   0.559862  -0.018067   0.001294   0.016110
    16  C   -0.005514  -0.020526  -0.018067   5.510998   0.438675   0.388359
    17  H   -0.003732  -0.004419   0.001294   0.438675   0.528892  -0.049154
    18  H   -0.010001   0.003984   0.016110   0.388359  -0.049154   0.580297
    19  H    0.012720   0.000230  -0.009524   0.408909  -0.007710  -0.051249
    20  B   -0.241691  -0.009569   0.010074  -0.022448  -0.026259   0.014249
    21  C    0.093872   0.008102  -0.003845  -0.032140   0.001316   0.002175
    22  C   -0.014963  -0.017075   0.019577   0.001506   0.004170  -0.002268
    23  C   -0.078642  -0.005461  -0.005836   0.013594  -0.000945  -0.001458
    24  H    0.000223  -0.001146   0.000509   0.001361  -0.000167   0.000034
    25  C    0.044450  -0.006030  -0.000481   0.010469  -0.000399  -0.000289
    26  C   -0.004441   0.019798  -0.023180   0.064195   0.003203  -0.001608
    27  H    0.024529   0.007049  -0.001461  -0.016240   0.002574  -0.001956
    28  C    0.034289  -0.013972   0.004307  -0.031069   0.003758  -0.000937
    29  C    0.098042   0.000332   0.002459  -0.013514  -0.000453   0.000578
    30  H   -0.000295  -0.000007  -0.000308   0.000159   0.000003  -0.000006
    31  H   -0.037085  -0.001691   0.003279  -0.000088  -0.000049   0.000064
    32  H    0.000633  -0.000723  -0.000108   0.001468  -0.000046  -0.000075
    33  H   -0.000162  -0.000140  -0.000038   0.000224  -0.000005   0.000005
    34  C   -0.033277   0.000508  -0.000969   0.004913  -0.000426   0.000151
    35  H    0.000809   0.001289  -0.000747   0.002402  -0.000241  -0.000099
    36  H   -0.020706  -0.009392   0.004359   0.000553   0.001893  -0.001144
    37  H    0.002593   0.000417  -0.000095   0.002198   0.000911  -0.000196
    38  H    0.000003  -0.000877   0.000293  -0.000809  -0.000121  -0.000053
    39  H    0.004038   0.001186  -0.000724   0.000078  -0.000012  -0.000016
    40  H    0.000194   0.000551   0.000485  -0.001441   0.000023   0.000034
    41  H   -0.000353   0.000082  -0.000226   0.000659  -0.000011  -0.000017
    42  H   -0.000159   0.000008  -0.000008  -0.000334  -0.000014   0.000008
              19         20         21         22         23         24
     1  C    0.000429  -0.254753  -0.435188   0.032547  -0.011535   0.028473
     2  C    0.005687  -0.060038  -0.053626   0.002895   0.302332  -0.004464
     3  C   -0.005088  -0.155323  -0.412524  -0.178813   0.091609   0.054830
     4  C    0.022597  -0.751191  -0.046156  -0.053235  -0.196709   0.009084
     5  C    0.029836  -0.535583  -0.027746  -0.105895   0.118769   0.001553
     6  C   -0.020151   0.350436   0.222713   0.011458  -0.058953  -0.012314
     7  H   -0.000065  -0.015514  -0.009722  -0.002502  -0.000679   0.001156
     8  H    0.000088  -0.047412   0.001091   0.017831   0.023299   0.011985
     9  H    0.005099  -0.026619  -0.004938  -0.001787   0.002915  -0.000082
    10  H   -0.000063  -0.001608   0.003284   0.000141  -0.001157  -0.000339
    11  N   -0.073017   0.240134  -0.033777  -0.022565   0.011868   0.005027
    12  C    0.002974  -0.255755  -0.045401   0.134021   0.024812   0.002195
    13  H    0.012720  -0.241691   0.093872  -0.014963  -0.078642   0.000223
    14  H    0.000230  -0.009569   0.008102  -0.017075  -0.005461  -0.001146
    15  H   -0.009524   0.010074  -0.003845   0.019577  -0.005836   0.000509
    16  C    0.408909  -0.022448  -0.032140   0.001506   0.013594   0.001361
    17  H   -0.007710  -0.026259   0.001316   0.004170  -0.000945  -0.000167
    18  H   -0.051249   0.014249   0.002175  -0.002268  -0.001458   0.000034
    19  H    0.518357  -0.018965  -0.005011  -0.000670   0.004362   0.000152
    20  B   -0.018965  11.737370   1.554065   0.363092  -1.036570  -0.349612
    21  C   -0.005011   1.554065   7.664282  -0.490682  -1.068093   0.253814
    22  C   -0.000670   0.363092  -0.490682   7.353496   0.009080   0.053622
    23  C    0.004362  -1.036570  -1.068093   0.009080   7.579483   0.041576
    24  H    0.000152  -0.349612   0.253814   0.053622   0.041576   0.556333
    25  C    0.001753  -2.300107  -1.258922  -0.091443   0.063762   0.126016
    26  C    0.003102  -0.695099  -0.207301  -0.996787   0.872581  -0.015061
    27  H   -0.000310  -0.331362   0.036095   0.386982  -0.017272  -0.003463
    28  C    0.002336  -1.688913  -0.194345  -1.269376  -0.369690   0.007041
    29  C   -0.001510  -0.263507   0.311128   0.179245  -0.972443   0.016245
    30  H    0.000031   0.007294  -0.071751  -0.019500   0.488149  -0.012516
    31  H    0.000118  -0.046899  -0.136089   0.053606   0.585973   0.010795
    32  H    0.000199  -0.264439  -0.057384  -0.019663   0.020588   0.017790
    33  H    0.000012  -0.017562  -0.080197  -0.027108  -0.004121  -0.011741
    34  C    0.000132   0.524934   0.200976   0.507453   0.370355  -0.010463
    35  H    0.000498  -0.030079  -0.032046  -0.072967   0.035241   0.001098
    36  H    0.001309  -0.064791  -0.020055   0.025186   0.075425  -0.001196
    37  H    0.000365  -0.254454   0.010667  -0.187444  -0.039150  -0.001774
    38  H    0.000208  -0.003234  -0.032378  -0.059667  -0.002608   0.001502
    39  H   -0.000006   0.038666   0.039450   0.010717  -0.125667  -0.000991
    40  H   -0.000217   0.067564   0.041119   0.063909  -0.094111  -0.000809
    41  H    0.000090  -0.093778   0.010865   0.038816   0.012209   0.003418
    42  H   -0.000024   0.122585   0.051207   0.056096   0.004700  -0.001068
              25         26         27         28         29         30
     1  C    0.148760   0.014401  -0.005446   0.054316  -0.020429   0.002443
     2  C   -0.167088   0.318751   0.002847  -0.386913  -0.238414   0.006986
     3  C    0.441128   0.140467   0.013717   0.303786   0.007414   0.002710
     4  C    0.197250  -0.438901   0.056424   0.596810   0.225112   0.003201
     5  C    0.058462   0.168496   0.035479   0.001694  -0.040755   0.001364
     6  C   -0.090289  -0.041591   0.009481  -0.046781   0.023537  -0.000311
     7  H    0.007099   0.000062   0.000120   0.004900  -0.000291   0.000027
     8  H   -0.006584   0.007117  -0.002913  -0.028285  -0.008177  -0.001413
     9  H    0.001026   0.002295   0.001246   0.002076  -0.000934  -0.000001
    10  H   -0.001406  -0.000598   0.000248  -0.000649   0.000427  -0.000004
    11  N    0.003223   0.075029  -0.029571  -0.066176  -0.039792  -0.000999
    12  C   -0.010474   0.000967   0.020867  -0.062753  -0.001551  -0.001084
    13  H    0.044450  -0.004441   0.024529   0.034289   0.098042  -0.000295
    14  H   -0.006030   0.019798   0.007049  -0.013972   0.000332  -0.000007
    15  H   -0.000481  -0.023180  -0.001461   0.004307   0.002459  -0.000308
    16  C    0.010469   0.064195  -0.016240  -0.031069  -0.013514   0.000159
    17  H   -0.000399   0.003203   0.002574   0.003758  -0.000453   0.000003
    18  H   -0.000289  -0.001608  -0.001956  -0.000937   0.000578  -0.000006
    19  H    0.001753   0.003102  -0.000310   0.002336  -0.001510   0.000031
    20  B   -2.300107  -0.695099  -0.331362  -1.688913  -0.263507   0.007294
    21  C   -1.258922  -0.207301   0.036095  -0.194345   0.311128  -0.071751
    22  C   -0.091443  -0.996787   0.386982  -1.269376   0.179245  -0.019500
    23  C    0.063762   0.872581  -0.017272  -0.369690  -0.972443   0.488149
    24  H    0.126016  -0.015061  -0.003463   0.007041   0.016245  -0.012516
    25  C    7.958721  -0.177242   0.001289   1.198934   0.429729  -0.013864
    26  C   -0.177242   8.624263   0.033578  -1.160091  -1.258510   0.031983
    27  H    0.001289   0.033578   0.508031   0.032847   0.015822   0.001207
    28  C    1.198934  -1.160091   0.032847   9.553171   0.826519   0.010390
    29  C    0.429729  -1.258510   0.015822   0.826519   7.204374  -0.106140
    30  H   -0.013864   0.031983   0.001207   0.010390  -0.106140   0.497070
    31  H   -0.035663   0.052529  -0.001189  -0.051090  -0.194021  -0.017759
    32  H    0.606686  -0.024755  -0.002904   0.114371   0.042483   0.000867
    33  H    0.489585   0.029880  -0.001091   0.017914  -0.008385   0.009359
    34  C   -0.976802   0.480160  -0.031848  -1.607188  -0.750553  -0.001114
    35  H    0.014265   0.536744  -0.005845  -0.034533  -0.109993  -0.000081
    36  H   -0.023181   0.466038   0.003696  -0.034181  -0.176383  -0.000557
    37  H    0.127949  -0.027954   0.021000   0.737788   0.065505   0.001151
    38  H    0.054917  -0.064290  -0.012908   0.524051   0.022028  -0.000328
    39  H    0.013257  -0.155694  -0.000041   0.019927   0.553221  -0.003057
    40  H   -0.044882  -0.162842   0.005122   0.016508   0.476028  -0.009636
    41  H   -0.013372  -0.015003  -0.000075  -0.079801  -0.000495   0.002778
    42  H   -0.193465  -0.000601  -0.001476  -0.179033  -0.024282  -0.000837
              31         32         33         34         35         36
     1  C    0.004689  -0.005752  -0.001582   0.040287   0.000481   0.006061
     2  C    0.039370  -0.033613   0.007252   0.226112   0.006056   0.021984
     3  C   -0.002335   0.029253   0.006439  -0.200788   0.014468  -0.000769
     4  C   -0.026864   0.019140   0.000137  -0.175099  -0.008713  -0.023666
     5  C    0.009821   0.006833   0.001840  -0.009052   0.002295   0.008034
     6  C   -0.007525  -0.007544  -0.000355  -0.003468  -0.001075  -0.006472
     7  H    0.000138   0.000184   0.000003  -0.001675  -0.000012   0.000062
     8  H    0.001854  -0.001609  -0.001236   0.013360   0.000740  -0.000072
     9  H    0.000343   0.000043   0.000011  -0.000488   0.000079   0.000312
    10  H   -0.000149  -0.000296  -0.000013  -0.000227  -0.000008  -0.000159
    11  N    0.000141   0.002458   0.001172   0.008464  -0.000887  -0.001068
    12  C    0.020273  -0.004632   0.000079   0.016463  -0.001135   0.038099
    13  H   -0.037085   0.000633  -0.000162  -0.033277   0.000809  -0.020706
    14  H   -0.001691  -0.000723  -0.000140   0.000508   0.001289  -0.009392
    15  H    0.003279  -0.000108  -0.000038  -0.000969  -0.000747   0.004359
    16  C   -0.000088   0.001468   0.000224   0.004913   0.002402   0.000553
    17  H   -0.000049  -0.000046  -0.000005  -0.000426  -0.000241   0.001893
    18  H    0.000064  -0.000075   0.000005   0.000151  -0.000099  -0.001144
    19  H    0.000118   0.000199   0.000012   0.000132   0.000498   0.001309
    20  B   -0.046899  -0.264439  -0.017562   0.524934  -0.030079  -0.064791
    21  C   -0.136089  -0.057384  -0.080197   0.200976  -0.032046  -0.020055
    22  C    0.053606  -0.019663  -0.027108   0.507453  -0.072967   0.025186
    23  C    0.585973   0.020588  -0.004121   0.370355   0.035241   0.075425
    24  H    0.010795   0.017790  -0.011741  -0.010463   0.001098  -0.001196
    25  C   -0.035663   0.606686   0.489585  -0.976802   0.014265  -0.023181
    26  C    0.052529  -0.024755   0.029880   0.480160   0.536744   0.466038
    27  H   -0.001189  -0.002904  -0.001091  -0.031848  -0.005845   0.003696
    28  C   -0.051090   0.114371   0.017914  -1.607188  -0.034533  -0.034181
    29  C   -0.194021   0.042483  -0.008385  -0.750553  -0.109993  -0.176383
    30  H   -0.017759   0.000867   0.009359  -0.001114  -0.000081  -0.000557
    31  H    0.568140  -0.008978  -0.002889   0.060205  -0.001340   0.011438
    32  H   -0.008978   0.592360  -0.014930  -0.179834   0.000560  -0.001041
    33  H   -0.002889  -0.014930   0.523483  -0.081495  -0.000182   0.000999
    34  C    0.060205  -0.179834  -0.081495   7.151739   0.000865   0.053182
    35  H   -0.001340   0.000560  -0.000182   0.000865   0.523926  -0.021879
    36  H    0.011438  -0.001041   0.000999   0.053182  -0.021879   0.615752
    37  H   -0.005539   0.021784   0.000776  -0.234219  -0.000342  -0.011673
    38  H    0.000482   0.001460   0.000050  -0.118744   0.007735  -0.003325
    39  H   -0.021698   0.002342  -0.000794  -0.027663  -0.003502  -0.025867
    40  H    0.007133  -0.005647  -0.006505  -0.002842  -0.010466   0.006165
    41  H   -0.002801   0.018676  -0.006253   0.461957   0.002055  -0.004287
    42  H    0.002104  -0.028620  -0.005284   0.568641  -0.001910   0.001791
              37         38         39         40         41         42
     1  C   -0.001825   0.000899  -0.000548  -0.002171   0.002101   0.001069
     2  C   -0.052736  -0.006104  -0.005667  -0.007540   0.002960   0.006770
     3  C    0.041340   0.017971  -0.008615  -0.013244  -0.013832  -0.019649
     4  C    0.065278   0.008438   0.004726   0.005816  -0.001623  -0.005364
     5  C    0.002006   0.001290  -0.000172  -0.000320  -0.000567  -0.000644
     6  C   -0.007104  -0.001870   0.000300   0.000795  -0.000264   0.000329
     7  H    0.000361   0.000091  -0.000009   0.000016  -0.000064  -0.000022
     8  H   -0.000435   0.000096  -0.000513  -0.001115   0.000442  -0.001081
     9  H    0.000107   0.000096  -0.000018   0.000002  -0.000052  -0.000009
    10  H    0.000192  -0.000021   0.000007   0.000007  -0.000001  -0.000009
    11  N   -0.007508  -0.001935  -0.000216  -0.001826   0.000226   0.000116
    12  C   -0.009626   0.002432  -0.002686   0.003206  -0.002586   0.000488
    13  H    0.002593   0.000003   0.004038   0.000194  -0.000353  -0.000159
    14  H    0.000417  -0.000877   0.001186   0.000551   0.000082   0.000008
    15  H   -0.000095   0.000293  -0.000724   0.000485  -0.000226  -0.000008
    16  C    0.002198  -0.000809   0.000078  -0.001441   0.000659  -0.000334
    17  H    0.000911  -0.000121  -0.000012   0.000023  -0.000011  -0.000014
    18  H   -0.000196  -0.000053  -0.000016   0.000034  -0.000017   0.000008
    19  H    0.000365   0.000208  -0.000006  -0.000217   0.000090  -0.000024
    20  B   -0.254454  -0.003234   0.038666   0.067564  -0.093778   0.122585
    21  C    0.010667  -0.032378   0.039450   0.041119   0.010865   0.051207
    22  C   -0.187444  -0.059667   0.010717   0.063909   0.038816   0.056096
    23  C   -0.039150  -0.002608  -0.125667  -0.094111   0.012209   0.004700
    24  H   -0.001774   0.001502  -0.000991  -0.000809   0.003418  -0.001068
    25  C    0.127949   0.054917   0.013257  -0.044882  -0.013372  -0.193465
    26  C   -0.027954  -0.064290  -0.155694  -0.162842  -0.015003  -0.000601
    27  H    0.021000  -0.012908  -0.000041   0.005122  -0.000075  -0.001476
    28  C    0.737788   0.524051   0.019927   0.016508  -0.079801  -0.179033
    29  C    0.065505   0.022028   0.553221   0.476028  -0.000495  -0.024282
    30  H    0.001151  -0.000328  -0.003057  -0.009636   0.002778  -0.000837
    31  H   -0.005539   0.000482  -0.021698   0.007133  -0.002801   0.002104
    32  H    0.021784   0.001460   0.002342  -0.005647   0.018676  -0.028620
    33  H    0.000776   0.000050  -0.000794  -0.006505  -0.006253  -0.005284
    34  C   -0.234219  -0.118744  -0.027663  -0.002842   0.461957   0.568641
    35  H   -0.000342   0.007735  -0.003502  -0.010466   0.002055  -0.001910
    36  H   -0.011673  -0.003325  -0.025867   0.006165  -0.004287   0.001791
    37  H    0.574369  -0.014478   0.002775  -0.005426   0.011403  -0.031770
    38  H   -0.014478   0.500145   0.000324   0.001104  -0.007167  -0.003454
    39  H    0.002775   0.000324   0.509524  -0.024643   0.002366  -0.001175
    40  H   -0.005426   0.001104  -0.024643   0.577927  -0.012268   0.004881
    41  H    0.011403  -0.007167   0.002366  -0.012268   0.576988  -0.032692
    42  H   -0.031770  -0.003454  -0.001175   0.004881  -0.032692   0.512177
 Mulliken charges:
               1
     1  C   -0.506029
     2  C   -0.018160
     3  C   -0.034151
     4  C   -0.312334
     5  C   -0.056392
     6  C   -0.412402
     7  H    0.218129
     8  H    0.206659
     9  H    0.188375
    10  H    0.226544
    11  N    0.340615
    12  C   -0.456755
    13  H    0.128548
    14  H    0.203868
    15  H    0.177384
    16  C   -0.343324
    17  H    0.171014
    18  H    0.167458
    19  H    0.171984
    20  B   -0.167331
    21  C    0.253096
    22  C    0.308965
    23  C   -0.661582
    24  H    0.221375
    25  C   -0.586745
    26  C   -0.474089
    27  H    0.247120
    28  C   -0.761955
    29  C   -0.269695
    30  H    0.194394
    31  H    0.169247
    32  H    0.162417
    33  H    0.182850
    34  C   -0.242624
    35  H    0.186474
    36  H    0.109525
    37  H    0.202810
    38  H    0.188756
    39  H    0.207089
    40  H    0.129361
    41  H    0.139497
    42  H    0.200016
 Sum of Mulliken charges =  -0.00000
 Mulliken charges with hydrogens summed into heavy atoms:
               1
     1  C   -0.287901
     2  C    0.188499
     3  C   -0.034151
     4  C   -0.312334
     5  C    0.131984
     6  C   -0.185858
    11  N    0.340615
    12  C    0.053044
    16  C    0.167132
    20  B   -0.167331
    21  C    0.474471
    22  C    0.556084
    23  C   -0.297941
    25  C   -0.241478
    26  C   -0.178091
    28  C   -0.370389
    29  C    0.066755
    34  C    0.096888
 Electronic spatial extent (au):  <R**2>=          10706.3311
 Charge=             -0.0000 electrons
 Dipole moment (field-independent basis, Debye):
    X=             -0.4031    Y=              1.4581    Z=             -0.4551  Tot=              1.5798
 Quadrupole moment (field-independent basis, Debye-Ang):
   XX=           -110.0175   YY=            -97.2716   ZZ=           -113.1660
   XY=              0.8258   XZ=              1.4557   YZ=             -4.7130
 Traceless Quadrupole moment (field-independent basis, Debye-Ang):
   XX=             -3.1991   YY=              9.5468   ZZ=             -6.3476
   XY=              0.8258   XZ=              1.4557   YZ=             -4.7130
 Octapole moment (field-independent basis, Debye-Ang**2):
  XXX=           -857.9068  YYY=           -764.6188  ZZZ=            -45.4582  XYY=           -267.6220
  XXY=           -282.5644  XXZ=            -11.1789  XZZ=           -284.2463  YZZ=           -288.7109
  YYZ=            -33.9249  XYZ=              6.0993
 Hexadecapole moment (field-independent basis, Debye-Ang**3):
 XXXX=          -8032.3532 YYYY=          -5613.0020 ZZZZ=           -914.9799 XXXY=          -1975.8279
 XXXZ=           -178.7612 YYYX=          -1821.9240 YYYZ=             -3.5193 ZZZX=           -184.7940
 ZZZY=             71.1084 XXYY=          -2334.1361 XXZZ=          -1494.1197 YYZZ=          -1163.5706
 XXYZ=             37.5299 YYXZ=            -42.7845 ZZXY=           -653.5826
 N-N= 1.361170583344D+03 E-N=-4.354489827035D+03  KE= 7.003829346771D+02
 Breneman (CHELPG) radii used.
 Generate Potential Derived Charges using the Breneman model, NDens= 1.
 Grid spacing= 0.300 Box extension= 2.800
 NStep X,Y,Z=   50     42     37   Total possible points=       77700
 Number of Points to Fit=   20445

 **********************************************************************

            Electrostatic Properties Using The SCF Density.

 **********************************************************************

       Atomic Center    1 is at  -0.514216  0.965226  1.061498
       Atomic Center    2 is at   0.849111  1.229623  1.135883
       Atomic Center    3 is at   1.437832  2.329692  0.500647
       Atomic Center    4 is at   0.585753  3.247351 -0.164805
       Atomic Center    5 is at  -0.786539  2.980846 -0.236916
       Atomic Center    6 is at  -1.323687  1.843440  0.356833
       Atomic Center    7 is at  -0.933905  0.089066  1.542039
       Atomic Center    8 is at   1.487515  0.535164  1.674046
       Atomic Center    9 is at  -1.453675  3.667122 -0.742255
       Atomic Center   10 is at  -2.391066  1.662732  0.283706
       Atomic Center   11 is at   1.134117  4.403951 -0.743102
       Atomic Center   12 is at   1.923017  5.269624  0.120906
       Atomic Center   13 is at   2.508898  4.689511  0.831978
       Atomic Center   14 is at   2.613796  5.865131 -0.481147
       Atomic Center   15 is at   1.280783  5.957074  0.695311
       Atomic Center   16 is at   0.301640  5.170246 -1.647009
       Atomic Center   17 is at  -0.146498  4.517423 -2.397763
       Atomic Center   18 is at  -0.501392  5.724044 -1.132644
       Atomic Center   19 is at   0.929569  5.898466 -2.165236
       Atomic Center   20 is at   2.994688  2.311707  0.396569
       Atomic Center   21 is at   3.941571  1.749153  1.526242
       Atomic Center   22 is at   3.806565  2.603921 -0.922307
       Atomic Center   23 is at   5.024561  2.818270  1.807444
       Atomic Center   24 is at   3.414556  1.562239  2.468906
       Atomic Center   25 is at   4.503638  0.388630  1.032768
       Atomic Center   26 is at   5.005395  3.545251 -0.667430
       Atomic Center   27 is at   3.187535  3.050005 -1.704978
       Atomic Center   28 is at   4.212466  1.181159 -1.402630
       Atomic Center   29 is at   5.848695  3.237262  0.582592
       Atomic Center   30 is at   5.701848  2.459575  2.592365
       Atomic Center   31 is at   4.528116  3.705673  2.223576
       Atomic Center   32 is at   3.688591 -0.343848  1.088094
       Atomic Center   33 is at   5.276731  0.034671  1.726557
       Atomic Center   34 is at   5.058869  0.380856 -0.402766
       Atomic Center   35 is at   5.658964  3.559943 -1.549014
       Atomic Center   36 is at   4.609368  4.562438 -0.572482
       Atomic Center   37 is at   3.294429  0.619720 -1.621958
       Atomic Center   38 is at   4.752427  1.261137 -2.353978
       Atomic Center   39 is at   6.437123  4.124864  0.838843
       Atomic Center   40 is at   6.580282  2.458958  0.359529
       Atomic Center   41 is at   6.082216  0.759247 -0.411209
       Atomic Center   42 is at   5.127640 -0.656562 -0.747063
   20445 points will be used for fitting atomic charges
 Fitting point charges to electrostatic potential
 Charges from ESP fit, RMS=   0.00314 RRMS=   0.35962:
 ESP charges:
               1
     1  C   -0.205161
     2  C   -0.000434
     3  C   -0.340912
     4  C    0.356526
     5  C   -0.270547
     6  C   -0.036241
     7  H    0.107176
     8  H    0.086840
     9  H    0.125925
    10  H    0.095891
    11  N   -0.237729
    12  C    0.001497
    13  H    0.016503
    14  H    0.074648
    15  H    0.016440
    16  C   -0.105401
    17  H    0.063725
    18  H    0.051953
    19  H    0.076925
    20  B    0.286314
    21  C    0.061717
    22  C    0.068301
    23  C   -0.014239
    24  H   -0.096384
    25  C    0.142593
    26  C    0.079919
    27  H   -0.115419
    28  C    0.113051
    29  C   -0.062280
    30  H   -0.001416
    31  H   -0.005069
    32  H   -0.038326
    33  H   -0.044873
    34  C   -0.144691
    35  H   -0.039671
    36  H   -0.033047
    37  H   -0.059363
    38  H   -0.021282
    39  H    0.000085
    40  H    0.009035
    41  H    0.017901
    42  H    0.019518
 Sum of ESP charges =   0.00000
 ESP charges with hydrogens summed into heavy atoms:
               1
     1  C   -0.097985
     2  C    0.086406
     3  C   -0.340912
     4  C    0.356526
     5  C   -0.144622
     6  C    0.059650
    11  N   -0.237729
    12  C    0.109089
    16  C    0.087202
    20  B    0.286314
    21  C   -0.034667
    22  C   -0.047118
    23  C   -0.020724
    25  C    0.059395
    26  C    0.007201
    28  C    0.032406
    29  C   -0.053160
    34  C   -0.107272
 Charge=   0.00000 Dipole=    -0.4944     1.5114    -0.3914 Tot=     1.6377
 -----------------------------------------------------------------

              Electrostatic Properties (Atomic Units)

 -----------------------------------------------------------------
    Center     Electric         -------- Electric Field --------
               Potential          X             Y             Z
 -----------------------------------------------------------------
    1 Atom    -14.788469
    2 Atom    -14.779892
    3 Atom    -14.800901
    4 Atom    -14.737354
    5 Atom    -14.783640
    6 Atom    -14.777086
    7 Atom     -1.114459
    8 Atom     -1.115690
    9 Atom     -1.106484
   10 Atom     -1.108942
   11 Atom    -18.379330
   12 Atom    -14.744191
   13 Atom     -1.105216
   14 Atom     -1.109553
   15 Atom     -1.114495
   16 Atom    -14.746371
   17 Atom     -1.108954
   18 Atom     -1.113086
   19 Atom     -1.107862
   20 Atom    -11.489743
   21 Atom    -14.803456
   22 Atom    -14.808267
   23 Atom    -14.782531
   24 Atom     -1.148064
   25 Atom    -14.782120
   26 Atom    -14.785625
   27 Atom     -1.155954
   28 Atom    -14.784572
   29 Atom    -14.787407
   30 Atom     -1.138746
   31 Atom     -1.136522
   32 Atom     -1.138168
   33 Atom     -1.138099
   34 Atom    -14.787777
   35 Atom     -1.141182
   36 Atom     -1.139927
   37 Atom     -1.141254
   38 Atom     -1.139555
   39 Atom     -1.138435
   40 Atom     -1.142020
   41 Atom     -1.141866
   42 Atom     -1.138974
 -----------------------------------------------------------------
 Unable to Open any file for archive entry.
 1\1\GINC-IRENE4899\SP\RwB97XD\GenECP\C16H24B1N1\PENASFRA\10-Apr-2024\0
 \\# wb97xd/genecp scrf=(solvent=toluene,pcm) nosymm pop=(chelpg) scfcy
 c=300\\bicyclo_dimethylaniline_chelpg\\0,1\C,0,-0.514216,0.965226,1.06
 1498\C,0,0.849111,1.229623,1.135883\C,0,1.437832,2.329692,0.500647\C,0
 ,0.585753,3.247351,-0.164805\C,0,-0.786539,2.980846,-0.236916\C,0,-1.3
 23687,1.84344,0.356833\H,0,-0.933905,0.089066,1.542039\H,0,1.487515,0.
 535164,1.674046\H,0,-1.453675,3.667122,-0.742255\H,0,-2.391066,1.66273
 2,0.283706\N,0,1.134117,4.403951,-0.743102\C,0,1.923017,5.269624,0.120
 906\H,0,2.508898,4.689511,0.831978\H,0,2.613796,5.865131,-0.481147\H,0
 ,1.280783,5.957074,0.695311\C,0,0.30164,5.170246,-1.647009\H,0,-0.1464
 98,4.517423,-2.397763\H,0,-0.501392,5.724044,-1.132644\H,0,0.929569,5.
 898466,-2.165236\B,0,2.994688,2.311707,0.396569\C,0,3.941571,1.749153,
 1.526242\C,0,3.806565,2.603921,-0.922307\C,0,5.024561,2.81827,1.807444
 \H,0,3.414556,1.562239,2.468906\C,0,4.503638,0.38863,1.032768\C,0,5.00
 5395,3.545251,-0.66743\H,0,3.187535,3.050005,-1.704978\C,0,4.212466,1.
 181159,-1.40263\C,0,5.848695,3.237262,0.582592\H,0,5.701848,2.459575,2
 .592365\H,0,4.528116,3.705673,2.223576\H,0,3.688591,-0.343848,1.088094
 \H,0,5.276731,0.034671,1.726557\C,0,5.058869,0.380856,-0.402766\H,0,5.
 658964,3.559943,-1.549014\H,0,4.609368,4.562438,-0.572482\H,0,3.294429
 ,0.61972,-1.621958\H,0,4.752427,1.261137,-2.353978\H,0,6.437123,4.1248
 64,0.838843\H,0,6.580282,2.458958,0.359529\H,0,6.082216,0.759247,-0.41
 1209\H,0,5.12764,-0.656562,-0.747063\\Version=AS64L-G16RevC.02\HF=-703
 .7288198\RMSD=6.721e-09\Dipole=-0.1586082,0.5736553,-0.1790341\Quadrup
 ole=-2.378466,7.0977877,-4.7193217,0.6139947,1.0822572,-3.5039832\PG=C
 01 [X(C16H24B1N1)]\\@
 The archive entry for this job was punched.


 THERE IS NO SUBJECT, HOWEVER COMPLEX,
 WHICH, IF STUDIED WITH PATIENCE AND INTELLIGIENCE
 WILL NOT BECOME
 MORE COMPLEX
                        QUOTED BY D. GORDON ROHMAN
 Job cpu time:       0 days  2 hours 13 minutes 56.2 seconds.
 Elapsed time:       0 days  0 hours  1 minutes 19.9 seconds.
 File lengths (MBytes):  RWF=    283 Int=      0 D2E=      0 Chk=     20 Scr=      1
 Normal termination of Gaussian 16 at Wed Apr 10 14:24:27 2024.
