 Entering Gaussian System, Link 0=/ccc/products/gaussian-16-C.02/system/default/g16/g16
 Input=borole_dimethylaniline_chelpg.gjf
 Output=borole_dimethylaniline_chelpg.log
 Initial command:
 /ccc/products/gaussian-16-C.02/system/default/g16/l1.exe "/ccc/scratch/cont003/gen7343/penasfra/flp/b-n_flp/borole_dimethylaniline/Reactant/Gau-2076341.inp" -scrdir="/ccc/scratch/cont003/gen7343/penasfra/flp/b-n_flp/borole_dimethylaniline/Reactant/"
 Entering Link 1 = /ccc/products/gaussian-16-C.02/system/default/g16/l1.exe PID=   2076390.
  
 Copyright (c) 1988-2021, Gaussian, Inc.  All Rights Reserved.
  
 This is part of the Gaussian(R) 16 program.  It is based on
 the Gaussian(R) 09 system (copyright 2009, Gaussian, Inc.),
 the Gaussian(R) 03 system (copyright 2003, Gaussian, Inc.),
 the Gaussian(R) 98 system (copyright 1998, Gaussian, Inc.),
 the Gaussian(R) 94 system (copyright 1995, Gaussian, Inc.),
 the Gaussian 92(TM) system (copyright 1992, Gaussian, Inc.),
 the Gaussian 90(TM) system (copyright 1990, Gaussian, Inc.),
 the Gaussian 88(TM) system (copyright 1988, Gaussian, Inc.),
 the Gaussian 86(TM) system (copyright 1986, Carnegie Mellon
 University), and the Gaussian 82(TM) system (copyright 1983,
 Carnegie Mellon University). Gaussian is a federally registered
 trademark of Gaussian, Inc.
  
 This software contains proprietary and confidential information,
 including trade secrets, belonging to Gaussian, Inc.
  
 This software is provided under written license and may be
 used, copied, transmitted, or stored only in accord with that
 written license.
  
 The following legend is applicable only to US Government
 contracts under FAR:
  
                    RESTRICTED RIGHTS LEGEND
  
 Use, reproduction and disclosure by the US Government is
 subject to restrictions as set forth in subparagraphs (a)
 and (c) of the Commercial Computer Software - Restricted
 Rights clause in FAR 52.227-19.
  
 Gaussian, Inc.
 340 Quinnipiac St., Bldg. 40, Wallingford CT 06492
  
  
 ---------------------------------------------------------------
 Warning -- This program may not be used in any manner that
 competes with the business of Gaussian, Inc. or will provide
 assistance to any competitor of Gaussian, Inc.  The licensee
 of this program is prohibited from giving any competitor of
 Gaussian, Inc. access to this program.  By using this program,
 the user acknowledges that Gaussian, Inc. is engaged in the
 business of creating and licensing software in the field of
 computational chemistry and represents and warrants to the
 licensee that it is not a competitor of Gaussian, Inc. and that
 it will not use this program in any manner prohibited above.
 ---------------------------------------------------------------
  

 Cite this work as:
 Gaussian 16, Revision C.02,
 M. J. Frisch, G. W. Trucks, H. B. Schlegel, G. E. Scuseria, 
 M. A. Robb, J. R. Cheeseman, G. Scalmani, V. Barone, 
 G. A. Petersson, H. Nakatsuji, X. Li, M. Caricato, A. V. Marenich, 
 J. Bloino, B. G. Janesko, R. Gomperts, B. Mennucci, H. P. Hratchian, 
 J. V. Ortiz, A. F. Izmaylov, J. L. Sonnenberg, D. Williams-Young, 
 F. Ding, F. Lipparini, F. Egidi, J. Goings, B. Peng, A. Petrone, 
 T. Henderson, D. Ranasinghe, V. G. Zakrzewski, J. Gao, N. Rega, 
 G. Zheng, W. Liang, M. Hada, M. Ehara, K. Toyota, R. Fukuda, 
 J. Hasegawa, M. Ishida, T. Nakajima, Y. Honda, O. Kitao, H. Nakai, 
 T. Vreven, K. Throssell, J. A. Montgomery, Jr., J. E. Peralta, 
 F. Ogliaro, M. J. Bearpark, J. J. Heyd, E. N. Brothers, K. N. Kudin, 
 V. N. Staroverov, T. A. Keith, R. Kobayashi, J. Normand, 
 K. Raghavachari, A. P. Rendell, J. C. Burant, S. S. Iyengar, 
 J. Tomasi, M. Cossi, J. M. Millam, M. Klene, C. Adamo, R. Cammi, 
 J. W. Ochterski, R. L. Martin, K. Morokuma, O. Farkas, 
 J. B. Foresman, and D. J. Fox, Gaussian, Inc., Wallingford CT, 2019.
 
 ******************************************
 Gaussian 16:  AS64L-G16RevC.02  7-Dec-2021
                 9-Apr-2024 
 ******************************************
 %nprocshared=128
 Will use up to  128 processors via shared memory.
 %mem=30GB
 %chk=borole_dimethylaniline_chelpg.chk
 ----------------------------------------------------------------------
 # wb97xd/genecp scrf=(solvent=toluene,pcm) nosymm pop=(chelpg) scfcyc=
 300
 ----------------------------------------------------------------------
 1/38=1,172=1/1;
 2/12=2,15=1,17=6,18=5,40=1/2;
 3/5=7,11=2,16=1,17=8,25=1,30=1,70=2201,72=13,74=-58/1,2,3;
 4//1;
 5/5=2,7=300,38=5,53=13/2;
 6/7=2,8=2,9=2,10=2,15=8,20=3,28=1/1,2;
 99/5=1,9=1/99;
 -----------------------------
 borole_dimethylaniline_chelpg
 -----------------------------
 Symbolic Z-matrix:
 Charge =  0 Multiplicity = 1
 C                    -0.60001   0.95288   0.8271 
 C                     0.7433    1.20084   1.06092 
 C                     0.60235   3.34538  -0.06661 
 C                    -0.75152   3.0767   -0.3221 
 C                    -1.33357   1.89452   0.11277 
 H                    -1.06645   0.04177   1.18234 
 H                     1.33459   0.45751   1.5862 
 H                    -1.36866   3.8036   -0.83374 
 H                    -2.38588   1.72222  -0.0885 
 N                     1.17853   4.55193  -0.45056 
 C                     1.96134   5.31023   0.51671 
 H                     2.30846   4.66865   1.32387 
 H                     2.83572   5.75917   0.03828 
 H                     1.35218   6.11327   0.95783 
 C                     0.4548    5.41139  -1.36441 
 H                     0.08666   4.84023  -2.21795 
 H                    -0.39323   5.92741  -0.88681 
 H                     1.14131   6.17294  -1.74034 
 C                     1.38979   2.356     0.58686 
 B                     2.92669   2.32759   0.58275 
 C                     3.94163   3.02948  -0.41799 
 C                     3.87178   1.48861   1.54662 
 C                     5.1704    2.65587  -0.03809 
 H                     3.74257   3.67238  -1.26622 
 C                     5.12893   1.74313   1.15879 
 H                     3.63321   0.86047   2.39728 
 H                     6.10614   2.94121  -0.51039 
 H                     6.03436   1.35954   1.62057 
 
                          Input orientation:                          
 ---------------------------------------------------------------------
 Center     Atomic      Atomic             Coordinates (Angstroms)
 Number     Number       Type             X           Y           Z
 ---------------------------------------------------------------------
      1          6           0       -0.600013    0.952882    0.827097
      2          6           0        0.743297    1.200837    1.060922
      3          6           0        0.602347    3.345375   -0.066611
      4          6           0       -0.751515    3.076700   -0.322100
      5          6           0       -1.333567    1.894516    0.112773
      6          1           0       -1.066448    0.041771    1.182335
      7          1           0        1.334587    0.457513    1.586202
      8          1           0       -1.368660    3.803595   -0.833739
      9          1           0       -2.385882    1.722223   -0.088503
     10          7           0        1.178531    4.551934   -0.450561
     11          6           0        1.961340    5.310228    0.516708
     12          1           0        2.308457    4.668647    1.323868
     13          1           0        2.835716    5.759174    0.038281
     14          1           0        1.352182    6.113267    0.957826
     15          6           0        0.454803    5.411386   -1.364413
     16          1           0        0.086657    4.840234   -2.217947
     17          1           0       -0.393232    5.927410   -0.886809
     18          1           0        1.141307    6.172944   -1.740342
     19          6           0        1.389785    2.356003    0.586855
     20          5           0        2.926694    2.327588    0.582749
     21          6           0        3.941632    3.029478   -0.417992
     22          6           0        3.871784    1.488605    1.546623
     23          6           0        5.170397    2.655872   -0.038086
     24          1           0        3.742574    3.672383   -1.266216
     25          6           0        5.128934    1.743133    1.158792
     26          1           0        3.633212    0.860474    2.397276
     27          1           0        6.106142    2.941207   -0.510385
     28          1           0        6.034359    1.359541    1.620565
 ---------------------------------------------------------------------
                    Distance matrix (angstroms):
                    1          2          3          4          5
     1  C    0.000000
     2  C    1.385871   0.000000
     3  C    2.822837   2.426982   0.000000
     4  C    2.419547   2.768768   1.403711   0.000000
     5  C    1.391055   2.386114   2.425888   1.387609   0.000000
     6  H    1.083457   2.152522   3.906218   3.401956   2.155917
     7  H    2.136424   1.085391   3.407009   3.854034   3.369721
     8  H    3.387589   3.850253   2.164098   1.082136   2.131126
     9  H    2.149311   3.374134   3.400678   2.135493   1.085156
    10  N    4.212933   3.701873   1.391111   2.432672   3.699980
    11  C    5.063925   4.320520   2.459221   3.612731   4.763052
    12  H    4.744775   3.813735   2.568130   3.821902   4.735704
    13  H    5.960445   5.118833   3.290192   4.493748   5.685424
    14  H    5.518852   4.951095   3.045152   3.909538   5.072004
    15  C    5.078741   4.867669   2.444271   2.827079   4.212923
    16  H    4.985510   4.942405   2.669979   2.721547   4.015787
    17  H    5.265564   5.236969   2.886314   2.928107   4.260003
    18  H    6.072313   5.720781   3.329715   3.896269   5.278635
    19  C    2.446581   1.406092   1.423353   2.435317   2.802565
    20  B    3.793044   2.503086   2.619188   3.861236   4.307929
    21  C    5.146750   3.969945   3.372549   4.694364   5.421953
    22  C    4.560886   3.179017   4.091373   5.233456   5.414459
    23  C    6.078351   4.787918   4.619882   5.943635   6.550112
    24  H    5.534953   4.529876   3.377427   4.630662   5.552444
    25  C    5.792698   4.420122   4.955682   6.208955   6.548358
    26  H    4.515993   3.202077   4.629429   5.615380   5.563910
    27  H    7.121433   5.853033   5.536429   6.861579   7.538777
    28  H    6.694016   5.322943   6.024687   7.264342   7.539627
                    6          7          8          9         10
     6  H    0.000000
     7  H    2.470004   0.000000
     8  H    4.278692   4.935577   0.000000
     9  H    2.485931   4.271536   2.433563   0.000000
    10  N    5.296022   4.575701   2.682353   4.565456   0.000000
    11  C    6.112872   5.008541   3.896479   5.669074   1.457192
    12  H    5.728699   4.330230   4.350261   5.719530   2.106882
    13  H    7.016013   5.723378   4.718208   6.601374   2.107761
    14  H    6.539361   5.690582   3.993403   5.860819   2.109851
    15  C    6.134566   5.832753   2.488297   4.827770   1.448297
    16  H    5.993064   5.936086   2.260221   4.513311   2.097370
    17  H    6.274976   6.246672   2.337705   4.721392   2.133702
    18  H    7.141954   6.615845   3.568708   5.914267   2.071858
    19  C    3.426857   2.146161   3.423832   3.887602   2.437821
    20  B    4.640005   2.653093   4.757636   5.388925   3.011896
    21  C    6.047173   4.174743   5.382500   6.469537   3.154942
    22  C    5.158698   2.738994   6.203834   6.471986   4.541623
    23  C    6.871767   4.710046   6.686524   7.613908   4.438489
    24  H    6.504109   4.926467   5.131176   6.538203   2.830763
    25  C    6.424791   4.028966   7.101719   7.617653   5.107354
    26  H    4.922719   2.470606   6.642300   6.568957   5.269014
    27  H    7.919475   5.773400   7.531330   8.589434   5.184532
    28  H    7.235332   4.785676   8.173231   8.599588   6.169279
                   11         12         13         14         15
    11  C    0.000000
    12  H    1.087945   0.000000
    13  H    1.093151   1.766348   0.000000
    14  H    1.100241   1.770699   1.780960   0.000000
    15  C    2.412157   3.348813   2.785185   2.586643   0.000000
    16  H    3.348682   4.184530   3.673192   3.647972   1.090993
    17  H    2.809766   3.710889   3.363064   2.546309   1.101612
    18  H    2.551668   3.607566   2.491130   2.707054   1.092054
    19  C    3.009824   2.595278   3.738077   3.775721   3.743929
    20  B    3.135668   2.532199   3.475702   4.117176   4.405848
    21  C    3.161810   2.896241   2.980348   4.255336   4.327491
    22  C    4.394920   3.550532   4.646105   5.299299   5.961384
    23  C    4.201363   3.754582   3.884205   5.246350   5.620394
    24  H    3.005686   3.123743   2.622747   4.076549   3.720647
    25  C    4.813532   4.067059   4.758464   5.779474   6.455242
    26  H    5.111947   4.172453   5.495282   5.904824   6.705474
    27  H    4.883294   4.557515   4.351742   5.900656   6.226458
    28  H    5.780650   4.992049   5.664955   6.705216   7.513920
                   16         17         18         19         20
    16  H    0.000000
    17  H    1.784425   0.000000
    18  H    1.765364   1.773024   0.000000
    19  C    3.966921   4.255089   4.477346   0.000000
    20  B    4.714138   5.112751   4.834369   1.537177   0.000000
    21  C    4.623798   5.235346   4.412687   2.824041   1.588783
    22  C    6.303379   6.619286   6.340558   2.798902   1.589384
    23  C    5.947070   6.509782   5.612578   3.843631   2.351044
    24  H    3.954162   4.725885   3.639257   3.271444   2.427510
    25  C    6.813146   7.224055   6.627924   3.831965   2.350165
    26  H    7.051016   7.257500   7.179959   3.247645   2.438052
    27  H    6.538828   7.162469   6.050331   4.877543   3.417654
    28  H    7.888254   8.274435   7.642415   4.861436   3.416396
                   21         22         23         24         25
    21  C    0.000000
    22  C    2.497775   0.000000
    23  C    1.339318   2.358010   0.000000
    24  H    1.082790   3.563375   2.140158   0.000000
    25  C    2.355975   1.340009   1.505765   3.394799   0.000000
    26  H    3.567273   1.084009   3.393727   4.619520   2.133100
    27  H    2.168279   3.366555   1.086325   2.586958   2.275185
    28  H    3.365102   2.167684   2.275528   4.351439   1.086357
                   26         27         28
    26  H    0.000000
    27  H    4.347335   0.000000
    28  H    2.572519   2.654763   0.000000
 Symmetry turned off by external request.
 Stoichiometry    C12H14BN
 Framework group  C1[X(C12H14BN)]
 Deg. of freedom    78
 Full point group                 C1      NOp   1
 Rotational constants (GHZ):           1.0191015           0.5779578           0.3967331
 General basis read from cards:  (5D, 7F)
 ======================================================================================================
                                       Pseudopotential Parameters
 ======================================================================================================
  Center     Atomic      Valence      Angular      Power
  Number     Number     Electrons     Momentum     of R      Exponent        Coefficient   SO-Coeffient
 ======================================================================================================
    1          6
                                   No pseudopotential on this center.
    2          6
                                   No pseudopotential on this center.
    3          6
                                   No pseudopotential on this center.
    4          6
                                   No pseudopotential on this center.
    5          6
                                   No pseudopotential on this center.
    6          1
                                   No pseudopotential on this center.
    7          1
                                   No pseudopotential on this center.
    8          1
                                   No pseudopotential on this center.
    9          1
                                   No pseudopotential on this center.
   10          7
                                   No pseudopotential on this center.
   11          6
                                   No pseudopotential on this center.
   12          1
                                   No pseudopotential on this center.
   13          1
                                   No pseudopotential on this center.
   14          1
                                   No pseudopotential on this center.
   15          6
                                   No pseudopotential on this center.
   16          1
                                   No pseudopotential on this center.
   17          1
                                   No pseudopotential on this center.
   18          1
                                   No pseudopotential on this center.
   19          6
                                   No pseudopotential on this center.
   20          5
                                   No pseudopotential on this center.
   21          6
                                   No pseudopotential on this center.
   22          6
                                   No pseudopotential on this center.
   23          6
                                   No pseudopotential on this center.
   24          1
                                   No pseudopotential on this center.
   25          6
                                   No pseudopotential on this center.
   26          1
                                   No pseudopotential on this center.
   27          1
                                   No pseudopotential on this center.
   28          1
                                   No pseudopotential on this center.
 ======================================================================================================
   406 basis functions,   630 primitive gaussians,   420 cartesian basis functions
    49 alpha electrons       49 beta electrons
       nuclear repulsion energy       810.0588725159 Hartrees.
 NAtoms=   28 NActive=   28 NUniq=   28 SFac= 1.00D+00 NAtFMM=   60 NAOKFM=F Big=F
 Integral buffers will be    131072 words long.
 Raffenetti 2 integral format.
 Two-electron integral symmetry is turned off.
 Nuclear repulsion after empirical dispersion term =      810.0390181136 Hartrees.
 ------------------------------------------------------------------------------
 Polarizable Continuum Model (PCM)
 =================================
 Model                : PCM.
 Atomic radii         : UFF (Universal Force Field).
 Polarization charges : Total charges.
 Charge compensation  : None.
 Solution method      : On-the-fly selection.
 Cavity type          : Scaled VdW (van der Waals Surface) (Alpha=1.100).
 Cavity algorithm     : GePol (No added spheres)
                        Default sphere list used, NSphG=   28.
                        Lebedev-Laikov grids with approx.  5.0 points / Ang**2.
                        Smoothing algorithm: York/Karplus (Gamma=1.0000).
                        Polarization charges: spherical gaussians, with
                                              point-specific exponents (IZeta= 3).
                        Self-potential: point-specific (ISelfS= 7).
                        Self-field    : sphere-specific E.n sum rule (ISelfD= 2).
 Solvent              : Toluene, Eps=   2.374100 Eps(inf)=   2.238315
 ------------------------------------------------------------------------------
 One-electron integrals computed using PRISM.
   1 Symmetry operations used in ECPInt.
 ECPInt:  NShTT=   11935 NPrTT=   39634 LenC2=   11379 LenP2D=   27564.
 LDataN:  DoStor=T MaxTD1= 4 Len=   56
 Number of processors reduced to 108 by ecpmxn.
 NBasis=   406 RedAO= T EigKep=  1.02D-06  NBF=   406
 NBsUse=   405 1.00D-06 EigRej=  3.82D-07 NBFU=   405
 ExpMin= 3.15D-02 ExpMax= 6.29D+03 ExpMxC= 9.49D+02 IAcc=3 IRadAn=         5 AccDes= 0.00D+00
 Harris functional with IExCor= 4639 and IRadAn=       5 diagonalized for initial guess.
 HarFok:  IExCor= 4639 AccDes= 0.00D+00 IRadAn=         5 IDoV= 1 UseB2=F ITyADJ=14
 ICtDFT=  3500011 ScaDFX=  1.000000  1.000000  1.000000  1.000000
 FoFCou: FMM=F IPFlag=           0 FMFlag=      100000 FMFlg1=           0
         NFxFlg=           0 DoJE=T BraDBF=F KetDBF=T FulRan=T
         wScrn=  0.000000 ICntrl=       500 IOpCl=  0 I1Cent=   200000004 NGrid=           0
         NMat0=    1 NMatS0=      1 NMatT0=    0 NMatD0=    1 NMtDS0=    0 NMtDT0=    0
 Symmetry not used in FoFCou.
 Requested convergence on RMS density matrix=1.00D-08 within 300 cycles.
 Requested convergence on MAX density matrix=1.00D-06.
 Requested convergence on             energy=1.00D-06.
 No special actions if energy rises.
 Inv3:  Mode=1 IEnd=    12792675.
 Iteration    1 A*A^-1 deviation from unit magnitude is 3.33D-15 for   2053.
 Iteration    1 A*A^-1 deviation from orthogonality  is 2.29D-15 for   2058   1313.
 Iteration    1 A^-1*A deviation from unit magnitude is 3.33D-15 for   2053.
 Iteration    1 A^-1*A deviation from orthogonality  is 1.78D-15 for   2065   1308.
 Error on total polarization charges =  0.01039
 SCF Done:  E(RwB97XD) =  -545.209314755     A.U. after   17 cycles
            NFock= 17  Conv=0.85D-08     -V/T= 2.0045

 **********************************************************************

            Population analysis using the SCF Density.

 **********************************************************************

 Alpha  occ. eigenvalues --  -14.45115 -10.33588 -10.31043 -10.30960 -10.29667
 Alpha  occ. eigenvalues --  -10.29395 -10.29270 -10.29100 -10.28475 -10.28057
 Alpha  occ. eigenvalues --  -10.26935 -10.25596 -10.25440  -6.84145  -1.05530
 Alpha  occ. eigenvalues --   -0.95267  -0.92300  -0.85268  -0.85112  -0.81746
 Alpha  occ. eigenvalues --   -0.80078  -0.75903  -0.71089  -0.69269  -0.67260
 Alpha  occ. eigenvalues --   -0.62192  -0.60235  -0.59694  -0.57079  -0.56652
 Alpha  occ. eigenvalues --   -0.55895  -0.53927  -0.52216  -0.51210  -0.49048
 Alpha  occ. eigenvalues --   -0.48026  -0.47848  -0.46954  -0.46323  -0.45843
 Alpha  occ. eigenvalues --   -0.43785  -0.43301  -0.42088  -0.39196  -0.38874
 Alpha  occ. eigenvalues --   -0.36691  -0.33471  -0.29999  -0.27840
 Alpha virt. eigenvalues --   -0.02910   0.03883   0.04801   0.04894   0.05050
 Alpha virt. eigenvalues --    0.05797   0.06123   0.06241   0.06577   0.07501
 Alpha virt. eigenvalues --    0.07640   0.08162   0.08877   0.09148   0.09822
 Alpha virt. eigenvalues --    0.10131   0.10611   0.11246   0.12586   0.13176
 Alpha virt. eigenvalues --    0.13504   0.13728   0.14249   0.14460   0.15289
 Alpha virt. eigenvalues --    0.15486   0.16134   0.16372   0.16923   0.17233
 Alpha virt. eigenvalues --    0.17376   0.17545   0.17857   0.18155   0.18462
 Alpha virt. eigenvalues --    0.18696   0.18862   0.19217   0.19528   0.19619
 Alpha virt. eigenvalues --    0.20114   0.20760   0.20882   0.21407   0.21757
 Alpha virt. eigenvalues --    0.22097   0.22272   0.22803   0.22952   0.23098
 Alpha virt. eigenvalues --    0.24109   0.24512   0.24790   0.24838   0.25304
 Alpha virt. eigenvalues --    0.25902   0.26067   0.26183   0.26969   0.27472
 Alpha virt. eigenvalues --    0.27683   0.27972   0.28655   0.28829   0.29093
 Alpha virt. eigenvalues --    0.29920   0.30375   0.30477   0.31565   0.31624
 Alpha virt. eigenvalues --    0.32460   0.32553   0.33271   0.33603   0.34366
 Alpha virt. eigenvalues --    0.34780   0.35273   0.35575   0.36122   0.36598
 Alpha virt. eigenvalues --    0.36868   0.37458   0.37561   0.38331   0.38871
 Alpha virt. eigenvalues --    0.39138   0.39381   0.39983   0.40447   0.40953
 Alpha virt. eigenvalues --    0.41369   0.41547   0.42528   0.44884   0.45137
 Alpha virt. eigenvalues --    0.46241   0.47381   0.49096   0.49431   0.50915
 Alpha virt. eigenvalues --    0.52834   0.53944   0.56601   0.58282   0.58622
 Alpha virt. eigenvalues --    0.59902   0.61019   0.61392   0.62062   0.62850
 Alpha virt. eigenvalues --    0.63530   0.63687   0.64101   0.66026   0.66198
 Alpha virt. eigenvalues --    0.66522   0.67182   0.67645   0.68582   0.68702
 Alpha virt. eigenvalues --    0.69909   0.70592   0.71248   0.71434   0.72557
 Alpha virt. eigenvalues --    0.73822   0.73949   0.75347   0.76440   0.76612
 Alpha virt. eigenvalues --    0.77379   0.77714   0.78252   0.79522   0.80328
 Alpha virt. eigenvalues --    0.81351   0.82263   0.82824   0.83827   0.85156
 Alpha virt. eigenvalues --    0.85595   0.85847   0.86139   0.87115   0.87311
 Alpha virt. eigenvalues --    0.89267   0.89439   0.90513   0.91291   0.92088
 Alpha virt. eigenvalues --    0.92660   0.93676   0.94912   0.95618   0.97067
 Alpha virt. eigenvalues --    0.97230   0.99201   1.00460   1.01315   1.01455
 Alpha virt. eigenvalues --    1.02082   1.03257   1.04460   1.05274   1.05792
 Alpha virt. eigenvalues --    1.06602   1.08997   1.10204   1.11042   1.11974
 Alpha virt. eigenvalues --    1.14329   1.14458   1.15520   1.16746   1.18523
 Alpha virt. eigenvalues --    1.20580   1.20765   1.22144   1.22904   1.24256
 Alpha virt. eigenvalues --    1.26620   1.28693   1.32422   1.37353   1.38352
 Alpha virt. eigenvalues --    1.39952   1.42260   1.45030   1.50910   1.51717
 Alpha virt. eigenvalues --    1.53094   1.54595   1.58381   1.59178   1.60239
 Alpha virt. eigenvalues --    1.61293   1.62107   1.62994   1.63163   1.63982
 Alpha virt. eigenvalues --    1.64735   1.65521   1.66083   1.66964   1.67274
 Alpha virt. eigenvalues --    1.67991   1.69349   1.70139   1.71848   1.73264
 Alpha virt. eigenvalues --    1.74907   1.76386   1.78239   1.79106   1.79647
 Alpha virt. eigenvalues --    1.80626   1.81889   1.83010   1.83704   1.84142
 Alpha virt. eigenvalues --    1.84870   1.85644   1.88175   1.90515   1.91348
 Alpha virt. eigenvalues --    1.91977   1.92838   1.95051   1.95466   1.96926
 Alpha virt. eigenvalues --    1.98086   2.00249   2.00974   2.01831   2.03664
 Alpha virt. eigenvalues --    2.04347   2.05311   2.06825   2.07117   2.08724
 Alpha virt. eigenvalues --    2.09787   2.11905   2.13494   2.14689   2.16057
 Alpha virt. eigenvalues --    2.18534   2.18692   2.21162   2.23178   2.25778
 Alpha virt. eigenvalues --    2.26108   2.28007   2.29263   2.31706   2.33868
 Alpha virt. eigenvalues --    2.35044   2.35951   2.37743   2.40167   2.44149
 Alpha virt. eigenvalues --    2.46719   2.52155   2.53291   2.55794   2.56407
 Alpha virt. eigenvalues --    2.56843   2.57028   2.60082   2.62356   2.63030
 Alpha virt. eigenvalues --    2.65889   2.66391   2.68760   2.69076   2.70535
 Alpha virt. eigenvalues --    2.70989   2.72385   2.73289   2.75605   2.77275
 Alpha virt. eigenvalues --    2.78784   2.80280   2.81007   2.82224   2.83032
 Alpha virt. eigenvalues --    2.83215   2.84049   2.84656   2.86454   2.87030
 Alpha virt. eigenvalues --    2.88417   2.88708   2.90233   2.91251   2.91368
 Alpha virt. eigenvalues --    2.93985   2.94635   2.95797   2.97500   2.98569
 Alpha virt. eigenvalues --    3.01186   3.05291   3.06850   3.08173   3.10708
 Alpha virt. eigenvalues --    3.11262   3.14709   3.16703   3.18330   3.22878
 Alpha virt. eigenvalues --    3.24327   3.28377   3.35609   3.39011   3.46833
 Alpha virt. eigenvalues --    3.48026   3.51767   3.59259   3.60157   3.63230
 Alpha virt. eigenvalues --    3.67683   3.68014   3.70703   3.74378   3.82244
 Alpha virt. eigenvalues --    3.87185   3.90227   3.91662   3.94110   3.97963
 Alpha virt. eigenvalues --    4.04952   4.12296   4.14645   4.15970   4.16485
 Alpha virt. eigenvalues --    4.25078   4.29040   4.34100   4.51028   4.94230
 Alpha virt. eigenvalues --    4.98328   5.16049  14.85566  23.77297  23.86418
 Alpha virt. eigenvalues --   23.94528  24.07985  24.08962  24.10850  24.12746
 Alpha virt. eigenvalues --   24.18984  24.23599  24.32664  24.38030  24.41439
 Alpha virt. eigenvalues --   35.74121
          Condensed to atoms (all electrons):
               1          2          3          4          5          6
     1  C    8.124372  -0.867618   1.137706  -0.567725   0.295379   0.398513
     2  C   -0.867618  10.743086  -5.291032  -0.554611   0.367853  -0.073809
     3  C    1.137706  -5.291032  16.109178   1.198687  -1.727659   0.040825
     4  C   -0.567725  -0.554611   1.198687  14.343225  -0.981731  -0.043409
     5  C    0.295379   0.367853  -1.727659  -0.981731   7.390512  -0.030243
     6  H    0.398513  -0.073809   0.040825  -0.043409  -0.030243   0.463374
     7  H   -0.100230   0.536543  -0.040472   0.080995   0.015023  -0.012329
     8  H   -0.011089   0.015816  -0.069873   0.584933  -0.083241   0.000438
     9  H   -0.044030  -0.013266   0.046346  -0.060216   0.371373  -0.007699
    10  N    0.026920   0.167110  -0.309578  -1.026358   0.040535   0.000104
    11  C    0.030658   0.002811  -0.009114  -0.141801   0.007963   0.000245
    12  H   -0.020247   0.042386  -0.105319  -0.086433   0.007444  -0.000057
    13  H    0.000446   0.026366  -0.006190  -0.022509   0.004888  -0.000009
    14  H    0.009582  -0.051620   0.062632   0.042613  -0.004111   0.000156
    15  C   -0.003517   0.031157   0.037292  -0.116738  -0.263882  -0.001478
    16  H    0.010898  -0.000554   0.008555  -0.012798  -0.031873   0.000232
    17  H   -0.002158  -0.007850  -0.032891   0.026787   0.028069  -0.000073
    18  H   -0.005068   0.004390   0.008908   0.039979  -0.005059  -0.000140
    19  C   -1.688219   0.743218  -4.254065  -6.341726   0.860992   0.047291
    20  B    0.078929   0.017492   0.138220   0.170807   0.032796  -0.002206
    21  C   -0.067273  -0.151944   0.330789   0.099741  -0.000684  -0.000876
    22  C   -0.071900   0.536064  -0.605943  -0.176343   0.096488  -0.000981
    23  C    0.071893   0.042067  -0.468969  -0.299343   0.016325   0.001452
    24  H    0.005345   0.013143  -0.021638   0.006046   0.002581   0.000145
    25  C   -0.130005  -0.261328   0.335913   0.156721  -0.052694   0.000077
    26  H   -0.001883   0.007585  -0.024169  -0.012877   0.005605   0.000166
    27  H    0.000266  -0.005737   0.000386  -0.004237  -0.000324   0.000024
    28  H    0.001981   0.006658   0.000507   0.001166  -0.000592  -0.000019
               7          8          9         10         11         12
     1  C   -0.100230  -0.011089  -0.044030   0.026920   0.030658  -0.020247
     2  C    0.536543   0.015816  -0.013266   0.167110   0.002811   0.042386
     3  C   -0.040472  -0.069873   0.046346  -0.309578  -0.009114  -0.105319
     4  C    0.080995   0.584933  -0.060216  -1.026358  -0.141801  -0.086433
     5  C    0.015023  -0.083241   0.371373   0.040535   0.007963   0.007444
     6  H   -0.012329   0.000438  -0.007699   0.000104   0.000245  -0.000057
     7  H    0.507633   0.000697   0.001825  -0.007061  -0.001165  -0.002655
     8  H    0.000697   0.496282  -0.009409  -0.033025  -0.005092   0.000265
     9  H    0.001825  -0.009409   0.464816  -0.002523   0.000317   0.000185
    10  N   -0.007061  -0.033025  -0.002523   7.107779   0.219406  -0.061340
    11  C   -0.001165  -0.005092   0.000317   0.219406   5.354880   0.390024
    12  H   -0.002655   0.000265   0.000185  -0.061340   0.390024   0.593717
    13  H   -0.000028  -0.000619   0.000092  -0.051699   0.378132  -0.019626
    14  H    0.000020   0.000809  -0.000485  -0.071265   0.459418  -0.055259
    15  C    0.000639   0.007666   0.002408   0.258908  -0.120105   0.001188
    16  H   -0.000357  -0.009684  -0.000392  -0.040606   0.010089  -0.002078
    17  H   -0.000103  -0.003963   0.000474  -0.057209  -0.013379  -0.006215
    18  H    0.000229   0.004647   0.000277  -0.064793   0.001728   0.008449
    19  C   -0.187877  -0.061729   0.022181   0.579472  -0.092830   0.235349
    20  B   -0.013959  -0.003136  -0.001056   0.010370  -0.025524  -0.120074
    21  C    0.027782   0.001779   0.000044  -0.049143  -0.049498  -0.038485
    22  C    0.002323  -0.002522   0.000511   0.035335   0.030343   0.012458
    23  C   -0.036255  -0.003034  -0.000179   0.087971   0.048675   0.038094
    24  H    0.000111   0.000147  -0.000072  -0.004897  -0.001834   0.009350
    25  C    0.025497   0.002520  -0.000665  -0.034771  -0.026307  -0.012828
    26  H    0.003472  -0.000182   0.000018   0.003212   0.001379   0.001949
    27  H   -0.000731  -0.000034  -0.000009   0.002318   0.000265   0.002282
    28  H    0.000988   0.000024   0.000003  -0.000346   0.000106  -0.000323
              13         14         15         16         17         18
     1  C    0.000446   0.009582  -0.003517   0.010898  -0.002158  -0.005068
     2  C    0.026366  -0.051620   0.031157  -0.000554  -0.007850   0.004390
     3  C   -0.006190   0.062632   0.037292   0.008555  -0.032891   0.008908
     4  C   -0.022509   0.042613  -0.116738  -0.012798   0.026787   0.039979
     5  C    0.004888  -0.004111  -0.263882  -0.031873   0.028069  -0.005059
     6  H   -0.000009   0.000156  -0.001478   0.000232  -0.000073  -0.000140
     7  H   -0.000028   0.000020   0.000639  -0.000357  -0.000103   0.000229
     8  H   -0.000619   0.000809   0.007666  -0.009684  -0.003963   0.004647
     9  H    0.000092  -0.000485   0.002408  -0.000392   0.000474   0.000277
    10  N   -0.051699  -0.071265   0.258908  -0.040606  -0.057209  -0.064793
    11  C    0.378132   0.459418  -0.120105   0.010089  -0.013379   0.001728
    12  H   -0.019626  -0.055259   0.001188  -0.002078  -0.006215   0.008449
    13  H    0.511948  -0.045118  -0.019988  -0.001356   0.000709   0.003070
    14  H   -0.045118   0.569499   0.007610   0.001828   0.011549  -0.011005
    15  C   -0.019988   0.007610   5.372943   0.435787   0.409828   0.394222
    16  H   -0.001356   0.001828   0.435787   0.535563  -0.048562  -0.014765
    17  H    0.000709   0.011549   0.409828  -0.048562   0.558647  -0.039691
    18  H    0.003070  -0.011005   0.394222  -0.014765  -0.039691   0.504285
    19  C    0.037637  -0.112623  -0.027092  -0.006679  -0.009735  -0.005001
    20  B   -0.002869   0.021918  -0.003137  -0.007889   0.008780  -0.007677
    21  C    0.027460  -0.002502   0.007051  -0.001808  -0.002050   0.005084
    22  C    0.000114  -0.000785  -0.010079  -0.000526   0.000961  -0.001725
    23  C   -0.024230   0.006432   0.004505   0.006137  -0.001296  -0.003335
    24  H    0.001369  -0.002259  -0.005262   0.001496  -0.001404  -0.000351
    25  C   -0.000282  -0.000112   0.006511  -0.000274  -0.000469   0.001649
    26  H   -0.000372   0.000147  -0.000172  -0.000069   0.000092  -0.000065
    27  H   -0.001073  -0.000051   0.000357   0.000019   0.000010   0.000142
    28  H    0.000031   0.000042   0.000085   0.000020  -0.000014   0.000008
              19         20         21         22         23         24
     1  C   -1.688219   0.078929  -0.067273  -0.071900   0.071893   0.005345
     2  C    0.743218   0.017492  -0.151944   0.536064   0.042067   0.013143
     3  C   -4.254065   0.138220   0.330789  -0.605943  -0.468969  -0.021638
     4  C   -6.341726   0.170807   0.099741  -0.176343  -0.299343   0.006046
     5  C    0.860992   0.032796  -0.000684   0.096488   0.016325   0.002581
     6  H    0.047291  -0.002206  -0.000876  -0.000981   0.001452   0.000145
     7  H   -0.187877  -0.013959   0.027782   0.002323  -0.036255   0.000111
     8  H   -0.061729  -0.003136   0.001779  -0.002522  -0.003034   0.000147
     9  H    0.022181  -0.001056   0.000044   0.000511  -0.000179  -0.000072
    10  N    0.579472   0.010370  -0.049143   0.035335   0.087971  -0.004897
    11  C   -0.092830  -0.025524  -0.049498   0.030343   0.048675  -0.001834
    12  H    0.235349  -0.120074  -0.038485   0.012458   0.038094   0.009350
    13  H    0.037637  -0.002869   0.027460   0.000114  -0.024230   0.001369
    14  H   -0.112623   0.021918  -0.002502  -0.000785   0.006432  -0.002259
    15  C   -0.027092  -0.003137   0.007051  -0.010079   0.004505  -0.005262
    16  H   -0.006679  -0.007889  -0.001808  -0.000526   0.006137   0.001496
    17  H   -0.009735   0.008780  -0.002050   0.000961  -0.001296  -0.001404
    18  H   -0.005001  -0.007677   0.005084  -0.001725  -0.003335  -0.000351
    19  C   15.748331  -0.193070  -0.363639  -0.043700   0.532402   0.028181
    20  B   -0.193070   3.969941   0.723217   0.545203  -0.356485  -0.056818
    21  C   -0.363639   0.723217   6.693441  -0.550547  -1.022435   0.382242
    22  C   -0.043700   0.545203  -0.550547   6.156932   0.449931   0.001601
    23  C    0.532402  -0.356485  -1.022435   0.449931   7.031028  -0.032255
    24  H    0.028181  -0.056818   0.382242   0.001601  -0.032255   0.469795
    25  C    0.038721  -0.089551   0.576627  -0.435855  -0.505000   0.019712
    26  H    0.014544  -0.047591   0.021008   0.362649   0.004943  -0.001871
    27  H    0.006041  -0.002932   0.017187  -0.014865   0.342512  -0.007650
    28  H   -0.005315   0.004096  -0.023948   0.014782  -0.022168   0.002100
              25         26         27         28
     1  C   -0.130005  -0.001883   0.000266   0.001981
     2  C   -0.261328   0.007585  -0.005737   0.006658
     3  C    0.335913  -0.024169   0.000386   0.000507
     4  C    0.156721  -0.012877  -0.004237   0.001166
     5  C   -0.052694   0.005605  -0.000324  -0.000592
     6  H    0.000077   0.000166   0.000024  -0.000019
     7  H    0.025497   0.003472  -0.000731   0.000988
     8  H    0.002520  -0.000182  -0.000034   0.000024
     9  H   -0.000665   0.000018  -0.000009   0.000003
    10  N   -0.034771   0.003212   0.002318  -0.000346
    11  C   -0.026307   0.001379   0.000265   0.000106
    12  H   -0.012828   0.001949   0.002282  -0.000323
    13  H   -0.000282  -0.000372  -0.001073   0.000031
    14  H   -0.000112   0.000147  -0.000051   0.000042
    15  C    0.006511  -0.000172   0.000357   0.000085
    16  H   -0.000274  -0.000069   0.000019   0.000020
    17  H   -0.000469   0.000092   0.000010  -0.000014
    18  H    0.001649  -0.000065   0.000142   0.000008
    19  C    0.038721   0.014544   0.006041  -0.005315
    20  B   -0.089551  -0.047591  -0.002932   0.004096
    21  C    0.576627   0.021008   0.017187  -0.023948
    22  C   -0.435855   0.362649  -0.014865   0.014782
    23  C   -0.505000   0.004943   0.342512  -0.022168
    24  H    0.019712  -0.001871  -0.007650   0.002100
    25  C    6.351011  -0.003166  -0.036642   0.335642
    26  H   -0.003166   0.485453   0.001898  -0.008127
    27  H   -0.036642   0.001898   0.467723   0.001989
    28  H    0.335642  -0.008127   0.001989   0.468541
 Mulliken charges:
               1
     1  C   -0.611925
     2  C   -0.024374
     3  C   -0.489029
     4  C   -0.302844
     5  C   -0.361733
     6  H    0.220286
     7  H    0.199443
     8  H    0.180612
     9  H    0.229132
    10  N    0.275175
    11  C   -0.449789
    12  H    0.187800
    13  H    0.203706
    14  H    0.162940
    15  C   -0.406708
    16  H    0.169647
    17  H    0.181153
    18  H    0.181607
    19  C    0.498940
    20  B    0.212209
    21  C   -0.588617
    22  C   -0.329925
    23  C    0.090617
    24  H    0.192949
    25  C   -0.260651
    26  H    0.186424
    27  H    0.230867
    28  H    0.222085
 Sum of Mulliken charges =  -0.00000
 Mulliken charges with hydrogens summed into heavy atoms:
               1
     1  C   -0.391639
     2  C    0.175070
     3  C   -0.489029
     4  C   -0.122231
     5  C   -0.132600
    10  N    0.275175
    11  C    0.104657
    15  C    0.125699
    19  C    0.498940
    20  B    0.212209
    21  C   -0.395667
    22  C   -0.143500
    23  C    0.321484
    25  C   -0.038566
 Electronic spatial extent (au):  <R**2>=           6917.5406
 Charge=              0.0000 electrons
 Dipole moment (field-independent basis, Debye):
    X=             -0.9137    Y=              1.9233    Z=             -0.4654  Tot=              2.1795
 Quadrupole moment (field-independent basis, Debye-Ang):
   XX=            -79.3542   YY=            -66.5073   ZZ=            -84.8211
   XY=              0.6155   XZ=              1.6504   YZ=             -6.3348
 Traceless Quadrupole moment (field-independent basis, Debye-Ang):
   XX=             -2.4600   YY=             10.3869   ZZ=             -7.9269
   XY=              0.6155   XZ=              1.6504   YZ=             -6.3348
 Octapole moment (field-independent basis, Debye-Ang**2):
  XXX=           -405.4568  YYY=           -610.9789  ZZZ=            -68.7200  XYY=           -135.9860
  XXY=           -230.0697  XXZ=            -19.6568  XZZ=           -147.3171  YZZ=           -243.2154
  YYZ=            -48.9852  XYZ=             -2.6856
 Hexadecapole moment (field-independent basis, Debye-Ang**3):
 XXXX=          -3490.7276 YYYY=          -4736.4128 ZZZZ=           -500.1464 XXXY=          -1128.3544
 XXXZ=           -213.4819 YYYX=          -1108.2941 YYYZ=            -93.5991 ZZZX=           -238.8151
 ZZZY=              5.7274 XXYY=          -1525.8496 XXZZ=           -741.1041 YYZZ=           -961.8801
 XXYZ=            -27.9555 YYXZ=           -102.1119 ZZXY=           -411.4507
 N-N= 8.100390181136D+02 E-N=-2.885439519039D+03  KE= 5.427696484488D+02
 Breneman (CHELPG) radii used.
 Generate Potential Derived Charges using the Breneman model, NDens= 1.
 Grid spacing= 0.300 Box extension= 2.800
 NStep X,Y,Z=   47     40     36   Total possible points=       67680
 Number of Points to Fit=   17067

 **********************************************************************

            Electrostatic Properties Using The SCF Density.

 **********************************************************************

       Atomic Center    1 is at  -0.600013  0.952882  0.827097
       Atomic Center    2 is at   0.743297  1.200837  1.060922
       Atomic Center    3 is at   0.602347  3.345375 -0.066611
       Atomic Center    4 is at  -0.751515  3.076700 -0.322100
       Atomic Center    5 is at  -1.333567  1.894516  0.112773
       Atomic Center    6 is at  -1.066448  0.041771  1.182335
       Atomic Center    7 is at   1.334587  0.457513  1.586202
       Atomic Center    8 is at  -1.368660  3.803595 -0.833739
       Atomic Center    9 is at  -2.385882  1.722223 -0.088503
       Atomic Center   10 is at   1.178531  4.551934 -0.450561
       Atomic Center   11 is at   1.961340  5.310228  0.516708
       Atomic Center   12 is at   2.308457  4.668647  1.323868
       Atomic Center   13 is at   2.835716  5.759174  0.038281
       Atomic Center   14 is at   1.352182  6.113267  0.957826
       Atomic Center   15 is at   0.454803  5.411386 -1.364413
       Atomic Center   16 is at   0.086657  4.840234 -2.217947
       Atomic Center   17 is at  -0.393232  5.927410 -0.886809
       Atomic Center   18 is at   1.141307  6.172944 -1.740342
       Atomic Center   19 is at   1.389785  2.356003  0.586855
       Atomic Center   20 is at   2.926694  2.327588  0.582749
       Atomic Center   21 is at   3.941632  3.029478 -0.417992
       Atomic Center   22 is at   3.871784  1.488605  1.546623
       Atomic Center   23 is at   5.170397  2.655872 -0.038086
       Atomic Center   24 is at   3.742574  3.672383 -1.266216
       Atomic Center   25 is at   5.128934  1.743133  1.158792
       Atomic Center   26 is at   3.633212  0.860474  2.397276
       Atomic Center   27 is at   6.106142  2.941207 -0.510385
       Atomic Center   28 is at   6.034359  1.359541  1.620565
   17067 points will be used for fitting atomic charges
 Fitting point charges to electrostatic potential
 Charges from ESP fit, RMS=   0.00434 RRMS=   0.37532:
 ESP charges:
               1
     1  C   -0.188872
     2  C    0.037874
     3  C    0.431178
     4  C   -0.259868
     5  C   -0.040487
     6  H    0.104957
     7  H    0.057009
     8  H    0.124995
     9  H    0.098481
    10  N   -0.334910
    11  C    0.195757
    12  H   -0.029437
    13  H    0.017008
    14  H   -0.019175
    15  C   -0.130941
    16  H    0.061941
    17  H    0.071616
    18  H    0.098435
    19  C   -0.457299
    20  B    0.681215
    21  C   -0.534083
    22  C   -0.455276
    23  C    0.055543
    24  H    0.149005
    25  C   -0.032402
    26  H    0.141649
    27  H    0.069731
    28  H    0.086356
 Sum of ESP charges =  -0.00000
 ESP charges with hydrogens summed into heavy atoms:
               1
     1  C   -0.083916
     2  C    0.094884
     3  C    0.431178
     4  C   -0.134872
     5  C    0.057993
    10  N   -0.334910
    11  C    0.164153
    15  C    0.101051
    19  C   -0.457299
    20  B    0.681215
    21  C   -0.385078
    22  C   -0.313627
    23  C    0.125274
    25  C    0.053954
 Charge=  -0.00000 Dipole=    -0.8999     1.8445    -0.4751 Tot=     2.1066
 -----------------------------------------------------------------

              Electrostatic Properties (Atomic Units)

 -----------------------------------------------------------------
    Center     Electric         -------- Electric Field --------
               Potential          X             Y             Z
 -----------------------------------------------------------------
    1 Atom    -14.785292
    2 Atom    -14.774905
    3 Atom    -14.728348
    4 Atom    -14.778643
    5 Atom    -14.769113
    6 Atom     -1.110831
    7 Atom     -1.113597
    8 Atom     -1.100936
    9 Atom     -1.102648
   10 Atom    -18.370621
   11 Atom    -14.744701
   12 Atom     -1.107611
   13 Atom     -1.113988
   14 Atom     -1.112130
   15 Atom    -14.740910
   16 Atom     -1.103573
   17 Atom     -1.107154
   18 Atom     -1.102469
   19 Atom    -14.797745
   20 Atom    -11.477682
   21 Atom    -14.814148
   22 Atom    -14.812746
   23 Atom    -14.777650
   24 Atom     -1.124001
   25 Atom    -14.776269
   26 Atom     -1.120444
   27 Atom     -1.108638
   28 Atom     -1.108115
 -----------------------------------------------------------------
 Unable to Open any file for archive entry.
 1\1\GINC-IRENE4945\SP\RwB97XD\GenECP\C12H14B1N1\PENASFRA\09-Apr-2024\0
 \\# wb97xd/genecp scrf=(solvent=toluene,pcm) nosymm pop=(chelpg) scfcy
 c=300\\borole_dimethylaniline_chelpg\\0,1\C,0,-0.600013,0.952882,0.827
 097\C,0,0.743297,1.200837,1.060922\C,0,0.602347,3.345375,-0.066611\C,0
 ,-0.751515,3.0767,-0.3221\C,0,-1.333567,1.894516,0.112773\H,0,-1.06644
 8,0.041771,1.182335\H,0,1.334587,0.457513,1.586202\H,0,-1.36866,3.8035
 95,-0.833739\H,0,-2.385882,1.722223,-0.088503\N,0,1.178531,4.551934,-0
 .450561\C,0,1.96134,5.310228,0.516708\H,0,2.308457,4.668647,1.323868\H
 ,0,2.835716,5.759174,0.038281\H,0,1.352182,6.113267,0.957826\C,0,0.454
 803,5.411386,-1.364413\H,0,0.086657,4.840234,-2.217947\H,0,-0.393232,5
 .92741,-0.886809\H,0,1.141307,6.172944,-1.740342\C,0,1.389785,2.356003
 ,0.586855\B,0,2.926694,2.327588,0.582749\C,0,3.941632,3.029478,-0.4179
 92\C,0,3.871784,1.488605,1.546623\C,0,5.170397,2.655872,-0.038086\H,0,
 3.742574,3.672383,-1.266216\C,0,5.128934,1.743133,1.158792\H,0,3.63321
 2,0.860474,2.397276\H,0,6.106142,2.941207,-0.510385\H,0,6.034359,1.359
 541,1.620565\\Version=AS64L-G16RevC.02\HF=-545.2093148\RMSD=8.546e-09\
 Dipole=-0.3594723,0.7566799,-0.1830894\Quadrupole=-1.8289626,7.7224065
 ,-5.8934439,0.4576117,1.2270215,-4.7097776\PG=C01 [X(C12H14B1N1)]\\@
 The archive entry for this job was punched.


  THE LARGE PRINT GIVETH,
  AND THE SMALL PRINT TAKETH AWAY.

                     -- TOM WAITS
 Job cpu time:       0 days  0 hours 55 minutes 37.0 seconds.
 Elapsed time:       0 days  0 hours  0 minutes 35.6 seconds.
 File lengths (MBytes):  RWF=    161 Int=      0 D2E=      0 Chk=     11 Scr=      1
 Normal termination of Gaussian 16 at Tue Apr  9 16:13:55 2024.
