 Entering Gaussian System, Link 0=/ccc/products/gaussian-16-C.02/system/default/g16/g16
 Input=cf3_benzopiperidine_chelpg.gjf
 Output=cf3_benzopiperidine_chelpg.log
 Initial command:
 /ccc/products/gaussian-16-C.02/system/default/g16/l1.exe "/ccc/scratch/cont003/gen7343/penasfra/flp/b-n_flp/cf3_benzopiperidine/reac/Gau-1705817.inp" -scrdir="/ccc/scratch/cont003/gen7343/penasfra/flp/b-n_flp/cf3_benzopiperidine/reac/"
 Entering Link 1 = /ccc/products/gaussian-16-C.02/system/default/g16/l1.exe PID=   1705866.
  
 Copyright (c) 1988-2021, Gaussian, Inc.  All Rights Reserved.
  
 This is part of the Gaussian(R) 16 program.  It is based on
 the Gaussian(R) 09 system (copyright 2009, Gaussian, Inc.),
 the Gaussian(R) 03 system (copyright 2003, Gaussian, Inc.),
 the Gaussian(R) 98 system (copyright 1998, Gaussian, Inc.),
 the Gaussian(R) 94 system (copyright 1995, Gaussian, Inc.),
 the Gaussian 92(TM) system (copyright 1992, Gaussian, Inc.),
 the Gaussian 90(TM) system (copyright 1990, Gaussian, Inc.),
 the Gaussian 88(TM) system (copyright 1988, Gaussian, Inc.),
 the Gaussian 86(TM) system (copyright 1986, Carnegie Mellon
 University), and the Gaussian 82(TM) system (copyright 1983,
 Carnegie Mellon University). Gaussian is a federally registered
 trademark of Gaussian, Inc.
  
 This software contains proprietary and confidential information,
 including trade secrets, belonging to Gaussian, Inc.
  
 This software is provided under written license and may be
 used, copied, transmitted, or stored only in accord with that
 written license.
  
 The following legend is applicable only to US Government
 contracts under FAR:
  
                    RESTRICTED RIGHTS LEGEND
  
 Use, reproduction and disclosure by the US Government is
 subject to restrictions as set forth in subparagraphs (a)
 and (c) of the Commercial Computer Software - Restricted
 Rights clause in FAR 52.227-19.
  
 Gaussian, Inc.
 340 Quinnipiac St., Bldg. 40, Wallingford CT 06492
  
  
 ---------------------------------------------------------------
 Warning -- This program may not be used in any manner that
 competes with the business of Gaussian, Inc. or will provide
 assistance to any competitor of Gaussian, Inc.  The licensee
 of this program is prohibited from giving any competitor of
 Gaussian, Inc. access to this program.  By using this program,
 the user acknowledges that Gaussian, Inc. is engaged in the
 business of creating and licensing software in the field of
 computational chemistry and represents and warrants to the
 licensee that it is not a competitor of Gaussian, Inc. and that
 it will not use this program in any manner prohibited above.
 ---------------------------------------------------------------
  

 Cite this work as:
 Gaussian 16, Revision C.02,
 M. J. Frisch, G. W. Trucks, H. B. Schlegel, G. E. Scuseria, 
 M. A. Robb, J. R. Cheeseman, G. Scalmani, V. Barone, 
 G. A. Petersson, H. Nakatsuji, X. Li, M. Caricato, A. V. Marenich, 
 J. Bloino, B. G. Janesko, R. Gomperts, B. Mennucci, H. P. Hratchian, 
 J. V. Ortiz, A. F. Izmaylov, J. L. Sonnenberg, D. Williams-Young, 
 F. Ding, F. Lipparini, F. Egidi, J. Goings, B. Peng, A. Petrone, 
 T. Henderson, D. Ranasinghe, V. G. Zakrzewski, J. Gao, N. Rega, 
 G. Zheng, W. Liang, M. Hada, M. Ehara, K. Toyota, R. Fukuda, 
 J. Hasegawa, M. Ishida, T. Nakajima, Y. Honda, O. Kitao, H. Nakai, 
 T. Vreven, K. Throssell, J. A. Montgomery, Jr., J. E. Peralta, 
 F. Ogliaro, M. J. Bearpark, J. J. Heyd, E. N. Brothers, K. N. Kudin, 
 V. N. Staroverov, T. A. Keith, R. Kobayashi, J. Normand, 
 K. Raghavachari, A. P. Rendell, J. C. Burant, S. S. Iyengar, 
 J. Tomasi, M. Cossi, J. M. Millam, M. Klene, C. Adamo, R. Cammi, 
 J. W. Ochterski, R. L. Martin, K. Morokuma, O. Farkas, 
 J. B. Foresman, and D. J. Fox, Gaussian, Inc., Wallingford CT, 2019.
 
 ******************************************
 Gaussian 16:  AS64L-G16RevC.02  7-Dec-2021
                11-Apr-2024 
 ******************************************
 %nprocshared=128
 Will use up to  128 processors via shared memory.
 %mem=30GB
 %chk=cf3_benzopiperidine_chelpg.chk
 ----------------------------------------------------------------------
 # wb97xd/genecp scrf=(solvent=toluene,pcm) nosymm pop=(chelpg) scfcyc=
 300
 ----------------------------------------------------------------------
 1/38=1,172=1/1;
 2/12=2,15=1,17=6,18=5,40=1/2;
 3/5=7,11=2,16=1,17=8,25=1,30=1,70=2201,72=13,74=-58/1,2,3;
 4//1;
 5/5=2,7=300,38=5,53=13/2;
 6/7=2,8=2,9=2,10=2,15=8,20=3,28=1/1,2;
 99/5=1,9=1/99;
 --------------------------
 cf3_benzopiperidine_chelpg
 --------------------------
 Symbolic Z-matrix:
 Charge =  0 Multiplicity = 1
 C                    -0.73916   0.81393   0.4363 
 C                     0.64125   0.74341   0.25015 
 C                     1.31217   1.92755  -0.01901 
 C                     0.59624   3.10034  -0.08929 
 C                    -0.76837   3.22338   0.08476 
 C                    -1.43097   2.02643   0.35472 
 H                    -1.2968   -0.09149   0.64904 
 H                     1.15831  -0.20698   0.31517 
 H                    -1.30083   4.16512   0.02052 
 H                    -2.50446   2.03554   0.50476 
 B                     2.67423   2.69048  -0.34335 
 C                     1.4154    4.80414  -1.66999 
 C                     1.75981   5.10345   0.72112 
 C                     2.5212    5.79973  -1.98397 
 C                     2.87452   6.10576   0.46885 
 C                     2.67694   6.82411  -0.86334 
 H                     2.27362   6.287    -2.93036 
 H                     3.46185   5.26622  -2.13641 
 H                     2.88156   6.8145    1.30074 
 H                     3.83906   5.59323   0.47848 
 H                     3.52143   7.48581  -1.06787 
 H                     1.7797    7.45301  -0.81252 
 N                     1.65355   4.08422  -0.37564 
 H                     1.89118   4.57167   1.6591 
 H                     0.79228   5.61634   0.75621 
 H                     0.45846   5.32602  -1.55905 
 H                     1.30143   4.05862  -2.45189 
 C                     3.35078   2.2974   -1.7782 
 C                     3.7988    2.6666    0.84078 
 F                     3.89604   1.06164  -1.71918 
 F                     2.46544   2.24503  -2.81081 
 F                     4.34478   3.12121  -2.19972 
 F                     4.85538   3.49937   0.65362 
 F                     4.32316   1.42652   0.96526 
 F                     3.31507   2.97153   2.0758 
 
                          Input orientation:                          
 ---------------------------------------------------------------------
 Center     Atomic      Atomic             Coordinates (Angstroms)
 Number     Number       Type             X           Y           Z
 ---------------------------------------------------------------------
      1          6           0       -0.739162    0.813929    0.436295
      2          6           0        0.641251    0.743409    0.250150
      3          6           0        1.312166    1.927548   -0.019007
      4          6           0        0.596244    3.100336   -0.089290
      5          6           0       -0.768374    3.223385    0.084763
      6          6           0       -1.430969    2.026429    0.354724
      7          1           0       -1.296796   -0.091486    0.649038
      8          1           0        1.158312   -0.206978    0.315165
      9          1           0       -1.300832    4.165117    0.020523
     10          1           0       -2.504460    2.035539    0.504760
     11          5           0        2.674230    2.690484   -0.343349
     12          6           0        1.415400    4.804136   -1.669992
     13          6           0        1.759806    5.103450    0.721119
     14          6           0        2.521203    5.799726   -1.983972
     15          6           0        2.874524    6.105765    0.468849
     16          6           0        2.676937    6.824114   -0.863342
     17          1           0        2.273623    6.287002   -2.930364
     18          1           0        3.461848    5.266222   -2.136406
     19          1           0        2.881561    6.814495    1.300740
     20          1           0        3.839056    5.593231    0.478482
     21          1           0        3.521432    7.485808   -1.067866
     22          1           0        1.779700    7.453012   -0.812518
     23          7           0        1.653549    4.084219   -0.375642
     24          1           0        1.891181    4.571665    1.659096
     25          1           0        0.792281    5.616337    0.756205
     26          1           0        0.458456    5.326020   -1.559053
     27          1           0        1.301426    4.058619   -2.451889
     28          6           0        3.350781    2.297397   -1.778202
     29          6           0        3.798804    2.666601    0.840779
     30          9           0        3.896036    1.061645   -1.719175
     31          9           0        2.465442    2.245034   -2.810807
     32          9           0        4.344777    3.121205   -2.199723
     33          9           0        4.855382    3.499372    0.653619
     34          9           0        4.323163    1.426520    0.965259
     35          9           0        3.315073    2.971531    2.075798
 ---------------------------------------------------------------------
                    Distance matrix (angstroms):
                    1          2          3          4          5
     1  C    0.000000
     2  C    1.394691   0.000000
     3  C    2.378107   1.387356   0.000000
     4  C    2.699482   2.381670   1.375833   0.000000
     5  C    2.435140   2.857390   2.453285   1.381165   0.000000
     6  C    1.398359   2.439502   2.770242   2.336668   1.394494
     7  H    1.084431   2.147600   3.365927   3.783709   3.403822
     8  H    2.158085   1.083889   2.165997   3.379028   3.941141
     9  H    3.423273   3.941129   3.440354   2.178237   1.083742
    10  H    2.147858   3.410267   3.853911   3.331824   2.145080
    11  B    3.972474   2.876864   1.594518   2.133202   3.509813
    12  C    5.000033   4.558043   3.318308   2.464258   3.216645
    13  C    4.972520   4.525808   3.291583   2.454201   3.214232
    14  C    6.430073   5.838824   4.507396   3.818638   4.662458
    15  C    6.408066   5.812934   4.487367   3.812438   4.661152
    16  C    7.034281   6.508368   5.152850   4.335316   5.072901
    17  H    7.096886   6.596342   5.329656   4.586953   5.265974
    18  H    6.640044   5.840142   4.500139   4.134420   5.196302
    19  H    7.061423   6.555975   5.299715   4.577099   5.262765
    20  H    6.618428   5.813679   4.479944   4.129494   5.196114
    21  H    8.057861   7.449332   6.072497   5.361595   6.156236
    22  H    7.209828   6.887968   5.601696   4.568306   5.018719
    23  N    4.132687   3.546459   2.212456   1.472385   2.611268
    24  H    4.747055   4.266497   3.184752   2.626504   3.371886
    25  H    5.050820   4.901462   3.805049   2.661495   2.934740
    26  H    5.076876   4.930208   3.827555   2.670741   2.937400
    27  H    4.799335   4.327524   3.234269   2.645272   3.378800
    28  C    4.881834   3.724331   2.717997   3.329356   4.614708
    29  C    4.918245   3.744015   2.732911   3.362967   4.662691
    30  F    5.117858   3.817478   3.211969   4.207305   5.448305
    31  F    4.781341   3.866783   3.037267   3.410586   4.449614
    32  F    6.174022   5.037052   3.921361   4.301844   5.601217
    33  F    6.209489   5.051437   3.934137   4.341820   5.659187
    34  F    5.126617   3.812414   3.207166   4.219438   5.470626
    35  F    4.876478   3.930247   3.080543   3.477963   4.549966
                    6          7          8          9         10
     6  C    0.000000
     7  H    2.142472   0.000000
     8  H    3.419656   2.480396   0.000000
     9  H    2.168551   4.302757   5.024880   0.000000
    10  H    1.083963   2.450205   4.298922   2.493654   0.000000
    11  B    4.216744   4.949064   3.335706   4.255357   5.288390
    12  C    4.462841   6.058137   5.396129   3.262530   5.268774
    13  C    4.447848   6.027883   5.359780   3.277012   5.257647
    14  C    5.943646   7.497749   6.574496   4.614965   6.754271
    15  C    5.932224   7.472503   6.543678   4.626090   6.745480
    16  C    6.432446   8.118089   7.289126   4.865607   7.186726
    17  H    6.532097   8.139110   7.345009   5.097731   7.259827
    18  H    6.375080   7.688200   6.424360   5.343023   7.280790
    19  H    6.512944   8.097898   7.296714   5.113763   7.244393
    20  H    6.364790   7.663033   6.391830   5.354221   7.273105
    21  H    7.506987   9.142126   8.165541   5.955318   8.275866
    22  H    6.412383   8.277706   7.767447   4.581909   7.031235
    23  N    3.779178   5.214501   4.374568   2.981922   4.718181
    24  H    4.383639   5.738327   5.017836   3.610976   5.204430
    25  H    4.241635   6.079060   5.851452   2.651111   4.873791
    26  H    4.256732   6.107859   5.883584   2.633980   4.885229
    27  H    4.412806   5.795677   5.086491   3.591088   5.226796
    28  C    5.242893   5.761790   3.932048   5.325532   6.290018
    29  C    5.291181   5.797322   3.937756   5.378165   6.343681
    30  F    5.797314   5.822684   3.639104   6.298057   6.845488
    31  F    5.024977   5.619990   4.182422   5.088022   5.978026
    32  F    6.409600   7.089723   5.249288   6.155660   7.443450
    33  F    6.463521   7.123453   5.245942   6.224387   7.505481
    34  F    5.817446   5.829947   3.620389   6.326275   6.870182
    35  F    5.136169   5.717259   4.225443   5.191857   6.100099
                   11         12         13         14         15
    11  B    0.000000
    12  C    2.795024   0.000000
    13  C    2.791356   2.434259   0.000000
    14  C    3.518870   1.520718   2.895176   0.000000
    15  C    3.516238   2.897917   1.520155   2.496963   0.000000
    16  C    4.166209   2.514452   2.512435   1.526249   1.526368
    17  H    4.448379   2.126964   3.872742   1.092882   3.456672
    18  H    3.235710   2.149189   3.329999   1.092097   2.799488
    19  H    4.444489   3.875103   2.126492   3.456725   1.092882
    20  H    3.233909   3.333575   2.149893   2.800546   1.092294
    21  H    4.923191   3.462556   3.461130   2.163927   2.164371
    22  H    4.868468   2.807939   2.805865   2.157657   2.157688
    23  N    1.727811   1.500112   1.501002   2.506494   2.508106
    24  H    2.856885   3.370940   1.086212   3.895768   2.176491
    25  H    3.648475   2.633321   1.095623   3.245208   2.158205
    26  H    3.651526   1.095633   2.634812   2.158675   3.249273
    27  H    2.863970   1.086346   3.371908   2.176754   3.898225
    28  C    1.634332   3.168777   4.080654   3.605114   4.447440
    29  C    1.633217   4.068617   3.179633   4.407715   3.580569
    30  F    2.457402   4.490235   5.182152   4.940617   5.592324
    31  F    2.516022   2.992165   4.598148   3.650014   5.082198
    32  F    2.534240   3.419667   4.375236   3.247529   4.265034
    33  F    2.530942   4.351443   3.487150   4.206769   3.278906
    34  F    2.455410   5.177637   4.488899   5.574043   4.923445
    35  F    2.518321   4.582373   2.966326   5.011053   3.549618
                   16         17         18         19         20
    16  C    0.000000
    17  H    2.173415   0.000000
    18  H    2.159584   1.756200   0.000000
    19  H    2.173756   4.306980   3.814165   0.000000
    20  H    2.160112   3.814725   2.662116   1.756243   0.000000
    21  H    1.092173   2.542255   2.464121   2.543696   2.464533
    22  H    1.096873   2.467552   3.060123   2.467319   3.060460
    23  N    2.965164   3.429774   2.787000   3.431134   2.789818
    24  H    3.471834   4.914447   4.165962   2.477813   2.496330
    25  H    2.762894   4.029263   3.951755   2.469249   3.059494
    26  H    2.765856   2.469577   3.058966   4.033040   3.956186
    27  H    3.473251   2.477861   2.495047   4.916696   4.169134
    28  C    4.667141   4.290069   2.992418   5.486732   4.024122
    29  C    4.631148   5.445640   3.966762   4.272929   2.949244
    30  F    5.951865   5.603888   4.247478   6.576042   5.036687
    31  F    4.980494   4.048283   3.251956   6.161002   4.890466
    32  F    4.275411   3.853023   2.320489   5.294774   3.679599
    33  F    4.254492   5.223150   3.584402   3.912132   2.334060
    34  F    5.931936   6.557498   5.010539   5.587579   4.222889
    35  F    4.887551   6.094147   4.798939   3.944239   3.114368
                   21         22         23         24         25
    21  H    0.000000
    22  H    1.760656   0.000000
    23  N    3.941950   3.399344   0.000000
    24  H    4.311180   3.797824   2.105761   0.000000
    25  H    3.777621   2.609456   2.090513   1.764691   0.000000
    26  H    3.779917   2.612871   2.090641   3.602532   2.357147
    27  H    4.311562   3.799761   2.106050   4.184642   3.602441
    28  C    5.239590   5.475510   2.835578   4.372384   4.897398
    29  C    5.190820   5.451596   2.844546   2.817434   4.212752
    30  F    6.467952   6.793414   3.996221   5.268055   6.042021
    31  F    5.623048   5.620181   3.157816   5.071787   5.185434
    32  F    4.583531   5.221926   3.390778   4.797338   5.251992
    33  F    4.542533   5.219257   3.413672   3.308668   4.582669
    34  F    6.441377   6.778518   3.998527   4.035825   5.483192
    35  F    5.504898   5.548280   3.163589   2.182095   3.885975
                   26         27         28         29         30
    26  H    0.000000
    27  H    1.764670   0.000000
    28  C    4.193582   2.784890   0.000000
    29  C    4.897921   4.360765   2.682554   0.000000
    30  F    5.479734   4.031219   1.351988   3.023029   0.000000
    31  F    3.884245   2.184684   1.361191   3.910199   2.153757
    32  F    4.513885   3.194420   1.358075   3.122404   2.161963
    33  F    5.250287   4.752635   3.101987   1.358269   3.534545
    34  F    6.042699   5.266473   3.038179   1.352127   2.742582
    35  F    5.188065   5.073114   3.912678   1.360974   4.288007
                   31         32         33         34         35
    31  F    0.000000
    32  F    2.161712   0.000000
    33  F    4.391745   2.923233   0.000000
    34  F    4.287163   3.590200   2.162659   0.000000
    35  F    5.012841   4.400315   2.161888   2.153277   0.000000
 Symmetry turned off by external request.
 Stoichiometry    C13H14BF6N
 Framework group  C1[X(C13H14BF6N)]
 Deg. of freedom    99
 Full point group                 C1      NOp   1
 Rotational constants (GHZ):           0.3696583           0.3252202           0.2720791
 General basis read from cards:  (5D, 7F)
 ======================================================================================================
                                       Pseudopotential Parameters
 ======================================================================================================
  Center     Atomic      Valence      Angular      Power
  Number     Number     Electrons     Momentum     of R      Exponent        Coefficient   SO-Coeffient
 ======================================================================================================
    1          6
                                   No pseudopotential on this center.
    2          6
                                   No pseudopotential on this center.
    3          6
                                   No pseudopotential on this center.
    4          6
                                   No pseudopotential on this center.
    5          6
                                   No pseudopotential on this center.
    6          6
                                   No pseudopotential on this center.
    7          1
                                   No pseudopotential on this center.
    8          1
                                   No pseudopotential on this center.
    9          1
                                   No pseudopotential on this center.
   10          1
                                   No pseudopotential on this center.
   11          5
                                   No pseudopotential on this center.
   12          6
                                   No pseudopotential on this center.
   13          6
                                   No pseudopotential on this center.
   14          6
                                   No pseudopotential on this center.
   15          6
                                   No pseudopotential on this center.
   16          6
                                   No pseudopotential on this center.
   17          1
                                   No pseudopotential on this center.
   18          1
                                   No pseudopotential on this center.
   19          1
                                   No pseudopotential on this center.
   20          1
                                   No pseudopotential on this center.
   21          1
                                   No pseudopotential on this center.
   22          1
                                   No pseudopotential on this center.
   23          7
                                   No pseudopotential on this center.
   24          1
                                   No pseudopotential on this center.
   25          1
                                   No pseudopotential on this center.
   26          1
                                   No pseudopotential on this center.
   27          1
                                   No pseudopotential on this center.
   28          6
                                   No pseudopotential on this center.
   29          6
                                   No pseudopotential on this center.
   30          9
                                   No pseudopotential on this center.
   31          9
                                   No pseudopotential on this center.
   32          9
                                   No pseudopotential on this center.
   33          9
                                   No pseudopotential on this center.
   34          9
                                   No pseudopotential on this center.
   35          9
                                   No pseudopotential on this center.
 ======================================================================================================
   560 basis functions,   882 primitive gaussians,   581 cartesian basis functions
    79 alpha electrons       79 beta electrons
       nuclear repulsion energy      1952.1527847412 Hartrees.
 NAtoms=   35 NActive=   35 NUniq=   35 SFac= 1.00D+00 NAtFMM=   60 NAOKFM=F Big=F
 Integral buffers will be    131072 words long.
 Raffenetti 2 integral format.
 Two-electron integral symmetry is turned off.
 Nuclear repulsion after empirical dispersion term =     1952.1167365721 Hartrees.
 ------------------------------------------------------------------------------
 Polarizable Continuum Model (PCM)
 =================================
 Model                : PCM.
 Atomic radii         : UFF (Universal Force Field).
 Polarization charges : Total charges.
 Charge compensation  : None.
 Solution method      : On-the-fly selection.
 Cavity type          : Scaled VdW (van der Waals Surface) (Alpha=1.100).
 Cavity algorithm     : GePol (No added spheres)
                        Default sphere list used, NSphG=   35.
                        Lebedev-Laikov grids with approx.  5.0 points / Ang**2.
                        Smoothing algorithm: York/Karplus (Gamma=1.0000).
                        Polarization charges: spherical gaussians, with
                                              point-specific exponents (IZeta= 3).
                        Self-potential: point-specific (ISelfS= 7).
                        Self-field    : sphere-specific E.n sum rule (ISelfD= 2).
 Solvent              : Toluene, Eps=   2.374100 Eps(inf)=   2.238315
 ------------------------------------------------------------------------------
 One-electron integrals computed using PRISM.
   1 Symmetry operations used in ECPInt.
 ECPInt:  NShTT=   19306 NPrTT=   69426 LenC2=   17994 LenP2D=   44203.
 LDataN:  DoStor=T MaxTD1= 4 Len=   56
 Number of processors reduced to  83 by ecpmxn.
 NBasis=   560 RedAO= T EigKep=  1.20D-06  NBF=   560
 NBsUse=   558 1.00D-06 EigRej=  3.86D-07 NBFU=   558
 ExpMin= 3.15D-02 ExpMax= 1.14D+04 ExpMxC= 1.72D+03 IAcc=3 IRadAn=         5 AccDes= 0.00D+00
 Harris functional with IExCor= 4639 and IRadAn=       5 diagonalized for initial guess.
 HarFok:  IExCor= 4639 AccDes= 0.00D+00 IRadAn=         5 IDoV= 1 UseB2=F ITyADJ=14
 ICtDFT=  3500011 ScaDFX=  1.000000  1.000000  1.000000  1.000000
 FoFCou: FMM=F IPFlag=           0 FMFlag=      100000 FMFlg1=           0
         NFxFlg=           0 DoJE=T BraDBF=F KetDBF=T FulRan=T
         wScrn=  0.000000 ICntrl=       500 IOpCl=  0 I1Cent=   200000004 NGrid=           0
         NMat0=    1 NMatS0=      1 NMatT0=    0 NMatD0=    1 NMtDS0=    0 NMtDT0=    0
 Symmetry not used in FoFCou.
 Requested convergence on RMS density matrix=1.00D-08 within 300 cycles.
 Requested convergence on MAX density matrix=1.00D-06.
 Requested convergence on             energy=1.00D-06.
 No special actions if energy rises.
 Inv3:  Mode=1 IEnd=    18287883.
 Iteration    1 A*A^-1 deviation from unit magnitude is 6.33D-15 for   2463.
 Iteration    1 A*A^-1 deviation from orthogonality  is 2.49D-15 for   2464   2065.
 Iteration    1 A^-1*A deviation from unit magnitude is 6.33D-15 for   2463.
 Iteration    1 A^-1*A deviation from orthogonality  is 2.91D-15 for   2450   2210.
 Error on total polarization charges =  0.01000
 SCF Done:  E(RwB97XD) =  -1182.51781593     A.U. after   15 cycles
            NFock= 15  Conv=0.49D-08     -V/T= 2.0034

 **********************************************************************

            Population analysis using the SCF Density.

 **********************************************************************

 Alpha  occ. eigenvalues --  -24.83141 -24.83106 -24.83041 -24.83040 -24.82837
 Alpha  occ. eigenvalues --  -24.82833 -14.53202 -10.50947 -10.50941 -10.33962
 Alpha  occ. eigenvalues --  -10.33909 -10.33904 -10.31352 -10.30736 -10.30363
 Alpha  occ. eigenvalues --  -10.30268 -10.29570 -10.29555 -10.29297 -10.28494
 Alpha  occ. eigenvalues --   -6.87543  -1.41117  -1.40810  -1.32115  -1.32054
 Alpha  occ. eigenvalues --   -1.31896  -1.31745  -1.10699  -0.97829  -0.92847
 Alpha  occ. eigenvalues --   -0.88603  -0.87321  -0.85905  -0.81556  -0.79239
 Alpha  occ. eigenvalues --   -0.77855  -0.75222  -0.73987  -0.70800  -0.69303
 Alpha  occ. eigenvalues --   -0.68341  -0.67596  -0.67324  -0.67019  -0.66693
 Alpha  occ. eigenvalues --   -0.64695  -0.64396  -0.59666  -0.59354  -0.57885
 Alpha  occ. eigenvalues --   -0.56834  -0.56024  -0.55662  -0.55492  -0.55332
 Alpha  occ. eigenvalues --   -0.54811  -0.54213  -0.52996  -0.52391  -0.52016
 Alpha  occ. eigenvalues --   -0.51467  -0.51223  -0.51022  -0.50474  -0.49618
 Alpha  occ. eigenvalues --   -0.49554  -0.48813  -0.47933  -0.47226  -0.45718
 Alpha  occ. eigenvalues --   -0.45607  -0.43912  -0.42508  -0.41988  -0.41641
 Alpha  occ. eigenvalues --   -0.41547  -0.39451  -0.34936  -0.34077
 Alpha virt. eigenvalues --    0.03116   0.03447   0.04319   0.04422   0.05209
 Alpha virt. eigenvalues --    0.05300   0.06166   0.06687   0.07346   0.07742
 Alpha virt. eigenvalues --    0.08321   0.08550   0.08654   0.09220   0.10416
 Alpha virt. eigenvalues --    0.10655   0.10942   0.11097   0.11966   0.12322
 Alpha virt. eigenvalues --    0.12389   0.12968   0.13892   0.14671   0.15180
 Alpha virt. eigenvalues --    0.15378   0.15704   0.16084   0.16386   0.16629
 Alpha virt. eigenvalues --    0.17096   0.17195   0.17522   0.17581   0.17907
 Alpha virt. eigenvalues --    0.18037   0.18469   0.18533   0.18700   0.18904
 Alpha virt. eigenvalues --    0.19311   0.19496   0.19953   0.20655   0.21075
 Alpha virt. eigenvalues --    0.21193   0.21431   0.21876   0.21919   0.21987
 Alpha virt. eigenvalues --    0.22426   0.23286   0.23337   0.23518   0.23652
 Alpha virt. eigenvalues --    0.23760   0.23893   0.24249   0.24444   0.24666
 Alpha virt. eigenvalues --    0.24878   0.25243   0.25811   0.26028   0.26417
 Alpha virt. eigenvalues --    0.26542   0.26829   0.27738   0.27957   0.28529
 Alpha virt. eigenvalues --    0.28888   0.29078   0.29551   0.29702   0.30163
 Alpha virt. eigenvalues --    0.30708   0.30965   0.31376   0.31785   0.32329
 Alpha virt. eigenvalues --    0.32752   0.32824   0.33206   0.33449   0.33828
 Alpha virt. eigenvalues --    0.34583   0.35001   0.35060   0.35488   0.36259
 Alpha virt. eigenvalues --    0.36616   0.36916   0.38203   0.38639   0.39051
 Alpha virt. eigenvalues --    0.39838   0.40232   0.40359   0.41039   0.41554
 Alpha virt. eigenvalues --    0.41932   0.42333   0.43002   0.43161   0.43776
 Alpha virt. eigenvalues --    0.44051   0.44715   0.44757   0.45533   0.45550
 Alpha virt. eigenvalues --    0.45868   0.47072   0.47671   0.48206   0.49151
 Alpha virt. eigenvalues --    0.49566   0.50833   0.51033   0.51555   0.51580
 Alpha virt. eigenvalues --    0.52040   0.52430   0.52500   0.53629   0.54611
 Alpha virt. eigenvalues --    0.55196   0.55391   0.55709   0.56104   0.56464
 Alpha virt. eigenvalues --    0.57411   0.57798   0.59102   0.59831   0.60026
 Alpha virt. eigenvalues --    0.60691   0.61697   0.61965   0.63525   0.63857
 Alpha virt. eigenvalues --    0.65000   0.65299   0.65494   0.66299   0.67493
 Alpha virt. eigenvalues --    0.67754   0.68588   0.68762   0.69830   0.70246
 Alpha virt. eigenvalues --    0.72752   0.73055   0.73531   0.74062   0.74290
 Alpha virt. eigenvalues --    0.75072   0.75205   0.76888   0.77187   0.77831
 Alpha virt. eigenvalues --    0.78434   0.78998   0.79324   0.79942   0.80083
 Alpha virt. eigenvalues --    0.80531   0.81599   0.81713   0.82303   0.82732
 Alpha virt. eigenvalues --    0.83442   0.84557   0.85419   0.86304   0.86715
 Alpha virt. eigenvalues --    0.87273   0.87798   0.88622   0.88776   0.89283
 Alpha virt. eigenvalues --    0.89574   0.91565   0.93389   0.94209   0.94862
 Alpha virt. eigenvalues --    0.95341   0.96215   0.97334   0.98197   0.98698
 Alpha virt. eigenvalues --    0.99264   1.00648   1.01128   1.03922   1.04981
 Alpha virt. eigenvalues --    1.05716   1.06603   1.07816   1.07934   1.10051
 Alpha virt. eigenvalues --    1.12480   1.12604   1.14465   1.15756   1.16413
 Alpha virt. eigenvalues --    1.16890   1.17390   1.18695   1.19495   1.19907
 Alpha virt. eigenvalues --    1.21759   1.26000   1.27722   1.28319   1.28595
 Alpha virt. eigenvalues --    1.30610   1.33205   1.33511   1.35473   1.38272
 Alpha virt. eigenvalues --    1.40647   1.41414   1.42692   1.43870   1.45274
 Alpha virt. eigenvalues --    1.46121   1.49899   1.50334   1.51313   1.53757
 Alpha virt. eigenvalues --    1.53904   1.54516   1.55456   1.56492   1.56712
 Alpha virt. eigenvalues --    1.56988   1.58870   1.59040   1.59404   1.60061
 Alpha virt. eigenvalues --    1.60598   1.61743   1.62787   1.62867   1.63745
 Alpha virt. eigenvalues --    1.64299   1.65207   1.66518   1.66669   1.67416
 Alpha virt. eigenvalues --    1.67825   1.67899   1.68564   1.68724   1.69506
 Alpha virt. eigenvalues --    1.70190   1.70883   1.71197   1.72592   1.72803
 Alpha virt. eigenvalues --    1.73065   1.73512   1.74044   1.74692   1.75606
 Alpha virt. eigenvalues --    1.76977   1.77496   1.78465   1.78963   1.80556
 Alpha virt. eigenvalues --    1.81707   1.82106   1.83270   1.84354   1.85733
 Alpha virt. eigenvalues --    1.86286   1.86741   1.88219   1.89311   1.90842
 Alpha virt. eigenvalues --    1.91634   1.92724   1.93376   1.94223   1.95251
 Alpha virt. eigenvalues --    1.96009   1.97069   1.97195   1.98257   1.99651
 Alpha virt. eigenvalues --    2.01373   2.02249   2.02546   2.04424   2.05436
 Alpha virt. eigenvalues --    2.05870   2.06513   2.06902   2.07462   2.10582
 Alpha virt. eigenvalues --    2.11323   2.12693   2.16431   2.16776   2.17859
 Alpha virt. eigenvalues --    2.20075   2.21011   2.21875   2.23091   2.25069
 Alpha virt. eigenvalues --    2.26428   2.28698   2.29381   2.29595   2.31979
 Alpha virt. eigenvalues --    2.34093   2.35234   2.36394   2.37501   2.40391
 Alpha virt. eigenvalues --    2.40737   2.41186   2.43175   2.43810   2.44941
 Alpha virt. eigenvalues --    2.45834   2.48948   2.51375   2.53060   2.56143
 Alpha virt. eigenvalues --    2.56338   2.58022   2.59577   2.62445   2.63708
 Alpha virt. eigenvalues --    2.64934   2.68021   2.69019   2.69706   2.71147
 Alpha virt. eigenvalues --    2.72116   2.74139   2.78431   2.79077   2.79381
 Alpha virt. eigenvalues --    2.81293   2.81853   2.82426   2.82909   2.83213
 Alpha virt. eigenvalues --    2.87100   2.87874   2.89632   2.90292   2.90811
 Alpha virt. eigenvalues --    2.92048   2.93156   2.95114   2.96088   2.96360
 Alpha virt. eigenvalues --    2.98275   2.98958   3.00483   3.02558   3.04267
 Alpha virt. eigenvalues --    3.06045   3.06449   3.08524   3.10046   3.11405
 Alpha virt. eigenvalues --    3.12247   3.13969   3.14279   3.17681   3.18096
 Alpha virt. eigenvalues --    3.21065   3.25884   3.28476   3.30807   3.34661
 Alpha virt. eigenvalues --    3.39804   3.41548   3.45869   3.46539   3.52471
 Alpha virt. eigenvalues --    3.53150   3.58075   3.64937   3.67432   3.70551
 Alpha virt. eigenvalues --    3.74417   3.80831   3.82247   3.82355   3.84855
 Alpha virt. eigenvalues --    3.85333   3.85797   3.86828   3.87354   3.87792
 Alpha virt. eigenvalues --    3.87994   3.89087   3.89183   3.91268   3.91490
 Alpha virt. eigenvalues --    3.92393   3.93077   3.94241   3.94359   3.95273
 Alpha virt. eigenvalues --    3.96659   3.98934   4.00082   4.01154   4.01775
 Alpha virt. eigenvalues --    4.03894   4.09431   4.12956   4.21434   4.21965
 Alpha virt. eigenvalues --    4.22167   4.23281   4.25320   4.26406   4.28688
 Alpha virt. eigenvalues --    4.28976   4.30756   4.32719   4.38087   4.44789
 Alpha virt. eigenvalues --    4.52777   4.62177   4.71517   4.84001   4.93809
 Alpha virt. eigenvalues --    4.99610   5.03415   5.04335   5.05598   5.06337
 Alpha virt. eigenvalues --    6.46931   6.47393   6.50404   6.53362   6.53487
 Alpha virt. eigenvalues --    6.54303   6.55190   6.55918   6.57399   6.59286
 Alpha virt. eigenvalues --    6.59393   6.60369   6.62147   6.64965   6.87469
 Alpha virt. eigenvalues --    6.88004   6.89149   6.91620  14.83199  23.69118
 Alpha virt. eigenvalues --   23.73155  23.77027  23.99429  24.06493  24.06999
 Alpha virt. eigenvalues --   24.09605  24.11272  24.11452  24.12107  24.23909
 Alpha virt. eigenvalues --   24.25104  24.34451  35.71699  66.94291  66.95121
 Alpha virt. eigenvalues --   66.97053  66.97418  67.00288  67.01869
          Condensed to atoms (all electrons):
               1          2          3          4          5          6
     1  C    6.961066   1.949050  -2.234707  -0.996293   0.914299  -0.810659
     2  C    1.949050  17.961099  -8.589361  -8.773731   7.671672  -2.328504
     3  C   -2.234707  -8.589361  15.150052   5.138722  -3.942714   2.319934
     4  C   -0.996293  -8.773731   5.138722  28.714433 -14.203277   0.533476
     5  C    0.914299   7.671672  -3.942714 -14.203277  17.126746  -1.357981
     6  C   -0.810659  -2.328504   2.319934   0.533476  -1.357981   7.792212
     7  H    0.408718  -0.008478  -0.009006   0.038899  -0.012585  -0.076918
     8  H    0.036932   0.703133  -0.324268  -0.145054   0.141566  -0.034455
     9  H    0.091613   0.179131  -0.091646  -0.442192   0.718401  -0.130020
    10  H   -0.044775  -0.036858   0.064468   0.082622  -0.136877   0.434192
    11  B   -0.228877  -0.542117   1.388946  -0.519529   0.220987   0.283243
    12  C    0.108497  -0.166252  -0.665668  -1.562119   0.177958  -0.137019
    13  C    0.098791  -0.245586  -0.702967  -1.232715  -0.025280  -0.139531
    14  C   -0.006669   0.018643   0.056748   0.137131  -0.006427   0.023936
    15  C    0.006333   0.068538   0.074150  -0.071384   0.115023   0.018712
    16  C    0.015365  -0.046090   0.014488  -0.213308   0.012963  -0.018152
    17  H    0.001127   0.002669  -0.003743  -0.034689   0.009549  -0.001847
    18  H   -0.004393  -0.008996   0.010477  -0.029866   0.004406   0.006548
    19  H    0.001005   0.003000  -0.002800  -0.036760   0.010927  -0.001650
    20  H   -0.004546  -0.005246   0.013422  -0.023700   0.008396   0.006566
    21  H   -0.000128  -0.000651   0.001198   0.033326  -0.006889   0.000731
    22  H    0.002384  -0.000154   0.003280  -0.063395   0.018164  -0.002794
    23  N    0.095327  -1.055108  -0.865526  -1.955404  -0.422324  -0.083488
    24  H    0.002788  -0.006927  -0.011392   0.064657  -0.035800  -0.008833
    25  H   -0.026681  -0.048869   0.002803   0.085693  -0.074568   0.044660
    26  H   -0.023672  -0.044976   0.004200   0.061320  -0.058668   0.044033
    27  H    0.002951   0.000328  -0.017045   0.043045  -0.023999  -0.006687
    28  C    0.116450  -0.047347  -0.454296   0.414650  -0.265089  -0.046152
    29  C    0.085490  -0.148311  -0.448207   0.507770  -0.335105  -0.021406
    30  F   -0.011965  -0.106500   0.119412   0.026661  -0.008938   0.001224
    31  F   -0.012398   0.010150   0.023508  -0.011370   0.001885   0.009062
    32  F   -0.003179  -0.021692   0.031419   0.025482  -0.010889   0.002425
    33  F   -0.002267  -0.015923   0.034784   0.018722  -0.006487   0.001716
    34  F   -0.010831  -0.098367   0.117747   0.024370  -0.006840   0.001005
    35  F   -0.008295   0.028811   0.016422  -0.023183   0.016152   0.005269
               7          8          9         10         11         12
     1  C    0.408718   0.036932   0.091613  -0.044775  -0.228877   0.108497
     2  C   -0.008478   0.703133   0.179131  -0.036858  -0.542117  -0.166252
     3  C   -0.009006  -0.324268  -0.091646   0.064468   1.388946  -0.665668
     4  C    0.038899  -0.145054  -0.442192   0.082622  -0.519529  -1.562119
     5  C   -0.012585   0.141566   0.718401  -0.136877   0.220987   0.177958
     6  C   -0.076918  -0.034455  -0.130020   0.434192   0.283243  -0.137019
     7  H    0.438295  -0.002769   0.003109  -0.007663  -0.022035   0.002578
     8  H   -0.002769   0.455891   0.001968   0.000621  -0.059737  -0.010571
     9  H    0.003109   0.001968   0.471632  -0.012356  -0.013309   0.001118
    10  H   -0.007663   0.000621  -0.012356   0.436303   0.009357  -0.009690
    11  B   -0.022035  -0.059737  -0.013309   0.009357   7.660923  -0.084956
    12  C    0.002578  -0.010571   0.001118  -0.009690  -0.084956   8.747028
    13  C    0.002764  -0.010888  -0.000352  -0.009433  -0.238310  -0.769050
    14  C    0.000286   0.001001  -0.009055  -0.000274  -0.337829  -1.575799
    15  C    0.000454   0.002013  -0.007281  -0.000415  -0.230538   0.718257
    16  C    0.000407  -0.001859   0.015828  -0.000954   0.347759  -0.027256
    17  H    0.000010   0.000089   0.000566  -0.000060   0.021721  -0.036649
    18  H   -0.000090  -0.000961  -0.001465   0.000013  -0.153180  -0.059119
    19  H    0.000003   0.000111   0.000425  -0.000035   0.025386   0.030868
    20  H   -0.000078  -0.000860  -0.001227   0.000021  -0.156574  -0.060444
    21  H    0.000003   0.000046  -0.000026   0.000035   0.015281   0.000638
    22  H    0.000072  -0.000165   0.004518  -0.000416  -0.036197  -0.057762
    23  N    0.003633  -0.032076   0.023292  -0.016135  -0.769029   0.868252
    24  H    0.000377   0.001430   0.000683  -0.000818  -0.088385  -0.020833
    25  H   -0.001090  -0.000136  -0.021080   0.003292   0.008688  -0.113394
    26  H   -0.001028  -0.000242  -0.021235   0.003303   0.012208   0.590398
    27  H    0.000344   0.001405   0.000313  -0.000694  -0.072140   0.469350
    28  C    0.004601   0.003813   0.004918  -0.002608  -0.749066  -0.258017
    29  C    0.003317   0.004554   0.001535  -0.002195  -0.769627   0.115629
    30  F    0.000020  -0.004951  -0.000336   0.000041  -0.118667   0.035425
    31  F   -0.000284  -0.000051  -0.001485   0.000148  -0.003360   0.087928
    32  F   -0.000102   0.000491  -0.000454   0.000060   0.032851  -0.020851
    33  F   -0.000081   0.000590  -0.000331   0.000050   0.038947   0.003334
    34  F    0.000028  -0.004203  -0.000254   0.000038  -0.118650  -0.006632
    35  F   -0.000087  -0.000325  -0.000982   0.000106  -0.013249  -0.019308
              13         14         15         16         17         18
     1  C    0.098791  -0.006669   0.006333   0.015365   0.001127  -0.004393
     2  C   -0.245586   0.018643   0.068538  -0.046090   0.002669  -0.008996
     3  C   -0.702967   0.056748   0.074150   0.014488  -0.003743   0.010477
     4  C   -1.232715   0.137131  -0.071384  -0.213308  -0.034689  -0.029866
     5  C   -0.025280  -0.006427   0.115023   0.012963   0.009549   0.004406
     6  C   -0.139531   0.023936   0.018712  -0.018152  -0.001847   0.006548
     7  H    0.002764   0.000286   0.000454   0.000407   0.000010  -0.000090
     8  H   -0.010888   0.001001   0.002013  -0.001859   0.000089  -0.000961
     9  H   -0.000352  -0.009055  -0.007281   0.015828   0.000566  -0.001465
    10  H   -0.009433  -0.000274  -0.000415  -0.000954  -0.000060   0.000013
    11  B   -0.238310  -0.337829  -0.230538   0.347759   0.021721  -0.153180
    12  C   -0.769050  -1.575799   0.718257  -0.027256  -0.036649  -0.059119
    13  C    8.657531   0.694930  -1.482025   0.013450   0.026991  -0.046428
    14  C    0.694930   7.730310  -0.615187  -0.480873   0.426522   0.546912
    15  C   -1.482025  -0.615187   7.631870  -0.491429  -0.015007   0.013350
    16  C    0.013450  -0.480873  -0.491429   6.856482  -0.040560  -0.112315
    17  H    0.026991   0.426522  -0.015007  -0.040560   0.468864  -0.024267
    18  H   -0.046428   0.546912   0.013350  -0.112315  -0.024267   0.541525
    19  H   -0.042601  -0.020885   0.431849  -0.038379   0.001184  -0.006203
    20  H   -0.066736   0.027301   0.541147  -0.118226  -0.006297   0.016550
    21  H   -0.002427  -0.058675  -0.056663   0.444401  -0.006463  -0.012108
    22  H   -0.053796  -0.043527  -0.049204   0.547054  -0.007908   0.010254
    23  N    0.831429  -0.099371  -0.086900   0.147221   0.001156   0.060979
    24  H    0.456233   0.037080  -0.059760  -0.020712   0.000667  -0.001683
    25  H    0.589809   0.053750  -0.061449  -0.078810  -0.000974  -0.000125
    26  H   -0.102670  -0.058776   0.046362  -0.084407  -0.009851   0.014780
    27  H   -0.018680  -0.075094   0.034466  -0.018244  -0.006047   0.002248
    28  C    0.174351   0.006058   0.050793  -0.045329   0.003222  -0.007328
    29  C   -0.156960   0.083807  -0.059300  -0.055365  -0.000524   0.041070
    30  F   -0.006465  -0.006008   0.000831  -0.001914  -0.000367   0.007500
    31  F   -0.015410  -0.046779  -0.003978  -0.004003  -0.000771  -0.002882
    32  F   -0.001304   0.030196  -0.003653  -0.019239   0.002795   0.007911
    33  F   -0.021327  -0.005868   0.022956  -0.018707  -0.000248  -0.010109
    34  F    0.031423   0.001165  -0.003495  -0.001845  -0.000140   0.000948
    35  F    0.106083  -0.004516  -0.053726  -0.000632  -0.000214   0.000783
              19         20         21         22         23         24
     1  C    0.001005  -0.004546  -0.000128   0.002384   0.095327   0.002788
     2  C    0.003000  -0.005246  -0.000651  -0.000154  -1.055108  -0.006927
     3  C   -0.002800   0.013422   0.001198   0.003280  -0.865526  -0.011392
     4  C   -0.036760  -0.023700   0.033326  -0.063395  -1.955404   0.064657
     5  C    0.010927   0.008396  -0.006889   0.018164  -0.422324  -0.035800
     6  C   -0.001650   0.006566   0.000731  -0.002794  -0.083488  -0.008833
     7  H    0.000003  -0.000078   0.000003   0.000072   0.003633   0.000377
     8  H    0.000111  -0.000860   0.000046  -0.000165  -0.032076   0.001430
     9  H    0.000425  -0.001227  -0.000026   0.004518   0.023292   0.000683
    10  H   -0.000035   0.000021   0.000035  -0.000416  -0.016135  -0.000818
    11  B    0.025386  -0.156574   0.015281  -0.036197  -0.769029  -0.088385
    12  C    0.030868  -0.060444   0.000638  -0.057762   0.868252  -0.020833
    13  C   -0.042601  -0.066736  -0.002427  -0.053796   0.831429   0.456233
    14  C   -0.020885   0.027301  -0.058675  -0.043527  -0.099371   0.037080
    15  C    0.431849   0.541147  -0.056663  -0.049204  -0.086900  -0.059760
    16  C   -0.038379  -0.118226   0.444401   0.547054   0.147221  -0.020712
    17  H    0.001184  -0.006297  -0.006463  -0.007908   0.001156   0.000667
    18  H   -0.006203   0.016550  -0.012108   0.010254   0.060979  -0.001683
    19  H    0.468971  -0.025188  -0.006895  -0.008056   0.000716  -0.006848
    20  H   -0.025188   0.551224  -0.012172   0.010574   0.062844   0.000768
    21  H   -0.006895  -0.012172   0.469553  -0.010484  -0.016604   0.000382
    22  H   -0.008056   0.010574  -0.010484   0.540487   0.069797   0.000655
    23  N    0.000716   0.062844  -0.016604   0.069797  10.406827  -0.054781
    24  H   -0.006848   0.000768   0.000382   0.000655  -0.054781   0.455312
    25  H   -0.009252   0.013952  -0.001496  -0.016311  -0.073900  -0.021705
    26  H   -0.000906  -0.000498  -0.001329  -0.016109  -0.071114  -0.002448
    27  H    0.000919  -0.002460   0.000283   0.000114  -0.054507  -0.001913
    28  C   -0.000138   0.036511  -0.003034   0.006747   0.029947   0.015180
    29  C   -0.002193  -0.004807  -0.002962   0.007012   0.032007   0.062922
    30  F   -0.000144   0.001143  -0.000068  -0.000044   0.021954  -0.000142
    31  F   -0.000170   0.000533  -0.000073  -0.000040   0.006910   0.000164
    32  F   -0.000474  -0.008048   0.000585  -0.001058  -0.000336  -0.000016
    33  F    0.003705   0.007483   0.000510  -0.001134   0.000581  -0.011051
    34  F   -0.000185   0.007812  -0.000067  -0.000052   0.019352   0.000305
    35  F   -0.001056  -0.003245  -0.000080  -0.000025  -0.002187  -0.018124
              25         26         27         28         29         30
     1  C   -0.026681  -0.023672   0.002951   0.116450   0.085490  -0.011965
     2  C   -0.048869  -0.044976   0.000328  -0.047347  -0.148311  -0.106500
     3  C    0.002803   0.004200  -0.017045  -0.454296  -0.448207   0.119412
     4  C    0.085693   0.061320   0.043045   0.414650   0.507770   0.026661
     5  C   -0.074568  -0.058668  -0.023999  -0.265089  -0.335105  -0.008938
     6  C    0.044660   0.044033  -0.006687  -0.046152  -0.021406   0.001224
     7  H   -0.001090  -0.001028   0.000344   0.004601   0.003317   0.000020
     8  H   -0.000136  -0.000242   0.001405   0.003813   0.004554  -0.004951
     9  H   -0.021080  -0.021235   0.000313   0.004918   0.001535  -0.000336
    10  H    0.003292   0.003303  -0.000694  -0.002608  -0.002195   0.000041
    11  B    0.008688   0.012208  -0.072140  -0.749066  -0.769627  -0.118667
    12  C   -0.113394   0.590398   0.469350  -0.258017   0.115629   0.035425
    13  C    0.589809  -0.102670  -0.018680   0.174351  -0.156960  -0.006465
    14  C    0.053750  -0.058776  -0.075094   0.006058   0.083807  -0.006008
    15  C   -0.061449   0.046362   0.034466   0.050793  -0.059300   0.000831
    16  C   -0.078810  -0.084407  -0.018244  -0.045329  -0.055365  -0.001914
    17  H   -0.000974  -0.009851  -0.006047   0.003222  -0.000524  -0.000367
    18  H   -0.000125   0.014780   0.002248  -0.007328   0.041070   0.007500
    19  H   -0.009252  -0.000906   0.000919  -0.000138  -0.002193  -0.000144
    20  H    0.013952  -0.000498  -0.002460   0.036511  -0.004807   0.001143
    21  H   -0.001496  -0.001329   0.000283  -0.003034  -0.002962  -0.000068
    22  H   -0.016311  -0.016109   0.000114   0.006747   0.007012  -0.000044
    23  N   -0.073900  -0.071114  -0.054507   0.029947   0.032007   0.021954
    24  H   -0.021705  -0.002448  -0.001913   0.015180   0.062922  -0.000142
    25  H    0.525344  -0.002690  -0.001978   0.008365  -0.026306  -0.000054
    26  H   -0.002690   0.527272  -0.020083  -0.033809   0.009147   0.002143
    27  H   -0.001978  -0.020083   0.453013   0.044870   0.012337   0.001438
    28  C    0.008365  -0.033809   0.044870   6.519568   0.109571   0.217250
    29  C   -0.026306   0.009147   0.012337   0.109571   6.577950   0.000146
    30  F   -0.000054   0.002143   0.001438   0.217250   0.000146   8.920361
    31  F   -0.000190   0.011702  -0.010279   0.132916   0.023862  -0.030646
    32  F    0.001227   0.001016  -0.012360   0.121783  -0.037797  -0.013756
    33  F    0.000190   0.001032   0.000166  -0.040065   0.121914  -0.004603
    34  F    0.001934  -0.000077  -0.000128  -0.005201   0.220064   0.003931
    35  F    0.012285  -0.000461   0.000074   0.021712   0.138361  -0.000786
              31         32         33         34         35
     1  C   -0.012398  -0.003179  -0.002267  -0.010831  -0.008295
     2  C    0.010150  -0.021692  -0.015923  -0.098367   0.028811
     3  C    0.023508   0.031419   0.034784   0.117747   0.016422
     4  C   -0.011370   0.025482   0.018722   0.024370  -0.023183
     5  C    0.001885  -0.010889  -0.006487  -0.006840   0.016152
     6  C    0.009062   0.002425   0.001716   0.001005   0.005269
     7  H   -0.000284  -0.000102  -0.000081   0.000028  -0.000087
     8  H   -0.000051   0.000491   0.000590  -0.004203  -0.000325
     9  H   -0.001485  -0.000454  -0.000331  -0.000254  -0.000982
    10  H    0.000148   0.000060   0.000050   0.000038   0.000106
    11  B   -0.003360   0.032851   0.038947  -0.118650  -0.013249
    12  C    0.087928  -0.020851   0.003334  -0.006632  -0.019308
    13  C   -0.015410  -0.001304  -0.021327   0.031423   0.106083
    14  C   -0.046779   0.030196  -0.005868   0.001165  -0.004516
    15  C   -0.003978  -0.003653   0.022956  -0.003495  -0.053726
    16  C   -0.004003  -0.019239  -0.018707  -0.001845  -0.000632
    17  H   -0.000771   0.002795  -0.000248  -0.000140  -0.000214
    18  H   -0.002882   0.007911  -0.010109   0.000948   0.000783
    19  H   -0.000170  -0.000474   0.003705  -0.000185  -0.001056
    20  H    0.000533  -0.008048   0.007483   0.007812  -0.003245
    21  H   -0.000073   0.000585   0.000510  -0.000067  -0.000080
    22  H   -0.000040  -0.001058  -0.001134  -0.000052  -0.000025
    23  N    0.006910  -0.000336   0.000581   0.019352  -0.002187
    24  H    0.000164  -0.000016  -0.011051   0.000305  -0.018124
    25  H   -0.000190   0.001227   0.000190   0.001934   0.012285
    26  H    0.011702   0.001016   0.001032  -0.000077  -0.000461
    27  H   -0.010279  -0.012360   0.000166  -0.000128   0.000074
    28  C    0.132916   0.121783  -0.040065  -0.005201   0.021712
    29  C    0.023862  -0.037797   0.121914   0.220064   0.138361
    30  F   -0.030646  -0.013756  -0.004603   0.003931  -0.000786
    31  F    8.917670  -0.029937  -0.000474  -0.000943  -0.000410
    32  F   -0.029937   8.959260   0.016425  -0.004600  -0.000575
    33  F   -0.000474   0.016425   8.952459  -0.014971  -0.031893
    34  F   -0.000943  -0.004600  -0.014971   8.922162  -0.029879
    35  F   -0.000410  -0.000575  -0.031893  -0.029879   8.915761
 Mulliken charges:
               1
     1  C   -0.467851
     2  C   -0.250182
     3  C   -0.222835
     4  C    0.386992
     5  C   -0.228355
     6  C   -0.322846
     7  H    0.234375
     8  H    0.277916
     9  H    0.236035
    10  H    0.247584
    11  B    0.259065
    12  C   -0.295868
    13  C   -0.292842
    14  C   -0.424164
    15  C   -0.425711
    16  C   -0.476811
    17  H    0.229494
    18  H    0.195266
    19  H    0.231748
    20  H    0.194105
    21  H    0.232322
    22  H    0.147521
    23  N   -0.023430
    24  H    0.272569
    25  H    0.229065
    26  H    0.226133
    27  H    0.274674
    28  C   -0.085797
    29  C   -0.087400
    30  F   -0.043127
    31  F   -0.050506
    32  F   -0.043606
    33  F   -0.040026
    34  F   -0.044924
    35  F   -0.048581
 Sum of Mulliken charges =  -0.00000
 Mulliken charges with hydrogens summed into heavy atoms:
               1
     1  C   -0.233475
     2  C    0.027733
     3  C   -0.222835
     4  C    0.386992
     5  C    0.007680
     6  C   -0.075263
    11  B    0.259065
    12  C    0.204938
    13  C    0.208792
    14  C    0.000596
    15  C    0.000142
    16  C   -0.096968
    23  N   -0.023430
    28  C   -0.085797
    29  C   -0.087400
    30  F   -0.043127
    31  F   -0.050506
    32  F   -0.043606
    33  F   -0.040026
    34  F   -0.044924
    35  F   -0.048581
 Electronic spatial extent (au):  <R**2>=          13626.1454
 Charge=              0.0000 electrons
 Dipole moment (field-independent basis, Debye):
    X=             -5.9774    Y=              5.1933    Z=              0.2753  Tot=              7.9231
 Quadrupole moment (field-independent basis, Debye-Ang):
   XX=           -145.0441   YY=            -74.8448   ZZ=           -127.3439
   XY=             -3.9675   XZ=              0.7607   YZ=             -4.2571
 Traceless Quadrupole moment (field-independent basis, Debye-Ang):
   XX=            -29.2998   YY=             40.8995   ZZ=            -11.5996
   XY=             -3.9675   XZ=              0.7607   YZ=             -4.2571
 Octapole moment (field-independent basis, Debye-Ang**2):
  XXX=           -897.8039  YYY=           -890.1545  ZZZ=            122.7737  XYY=           -210.6496
  XXY=           -427.9890  XXZ=             49.1120  XZZ=           -274.1862  YZZ=           -393.9255
  YYZ=             13.6558  XYZ=             -4.9681
 Hexadecapole moment (field-independent basis, Debye-Ang**3):
 XXXX=          -6108.4476 YYYY=          -8387.5400 ZZZZ=          -1332.9829 XXXY=          -2935.8841
 XXXZ=            386.3332 YYYX=          -2237.4033 YYYZ=            350.8657 ZZZX=            390.3177
 ZZZY=            481.4161 XXYY=          -2558.8914 XXZZ=          -1232.8656 YYZZ=          -1829.3510
 XXYZ=            164.4043 YYXZ=             78.2130 ZZXY=           -913.1735
 N-N= 1.952116736572D+03 E-N=-6.688534145935D+03  KE= 1.178564128156D+03
 Breneman (CHELPG) radii used.
 Generate Potential Derived Charges using the Breneman model, NDens= 1.
 Grid spacing= 0.300 Box extension= 2.800
 NStep X,Y,Z=   45     46     37   Total possible points=       76590
 Number of Points to Fit=   17862

 **********************************************************************

            Electrostatic Properties Using The SCF Density.

 **********************************************************************

       Atomic Center    1 is at  -0.739162  0.813929  0.436295
       Atomic Center    2 is at   0.641251  0.743409  0.250150
       Atomic Center    3 is at   1.312166  1.927548 -0.019007
       Atomic Center    4 is at   0.596244  3.100336 -0.089290
       Atomic Center    5 is at  -0.768374  3.223385  0.084763
       Atomic Center    6 is at  -1.430969  2.026429  0.354724
       Atomic Center    7 is at  -1.296796 -0.091486  0.649038
       Atomic Center    8 is at   1.158312 -0.206978  0.315165
       Atomic Center    9 is at  -1.300832  4.165117  0.020523
       Atomic Center   10 is at  -2.504460  2.035539  0.504760
       Atomic Center   11 is at   2.674230  2.690484 -0.343349
       Atomic Center   12 is at   1.415400  4.804136 -1.669992
       Atomic Center   13 is at   1.759806  5.103450  0.721119
       Atomic Center   14 is at   2.521203  5.799726 -1.983972
       Atomic Center   15 is at   2.874524  6.105765  0.468849
       Atomic Center   16 is at   2.676937  6.824114 -0.863342
       Atomic Center   17 is at   2.273623  6.287002 -2.930364
       Atomic Center   18 is at   3.461848  5.266222 -2.136406
       Atomic Center   19 is at   2.881561  6.814495  1.300740
       Atomic Center   20 is at   3.839056  5.593231  0.478482
       Atomic Center   21 is at   3.521432  7.485808 -1.067866
       Atomic Center   22 is at   1.779700  7.453012 -0.812518
       Atomic Center   23 is at   1.653549  4.084219 -0.375642
       Atomic Center   24 is at   1.891181  4.571665  1.659096
       Atomic Center   25 is at   0.792281  5.616337  0.756205
       Atomic Center   26 is at   0.458456  5.326020 -1.559053
       Atomic Center   27 is at   1.301426  4.058619 -2.451889
       Atomic Center   28 is at   3.350781  2.297397 -1.778202
       Atomic Center   29 is at   3.798804  2.666601  0.840779
       Atomic Center   30 is at   3.896036  1.061645 -1.719175
       Atomic Center   31 is at   2.465442  2.245034 -2.810807
       Atomic Center   32 is at   4.344777  3.121205 -2.199723
       Atomic Center   33 is at   4.855382  3.499372  0.653619
       Atomic Center   34 is at   4.323163  1.426520  0.965259
       Atomic Center   35 is at   3.315073  2.971531  2.075798
   17862 points will be used for fitting atomic charges
 Fitting point charges to electrostatic potential
 Charges from ESP fit, RMS=   0.00317 RRMS=   0.15188:
 ESP charges:
               1
     1  C   -0.088721
     2  C   -0.149899
     3  C   -0.044917
     4  C    0.219406
     5  C   -0.251691
     6  C   -0.080312
     7  H    0.106923
     8  H    0.126275
     9  H    0.162862
    10  H    0.109465
    11  B   -0.084321
    12  C   -0.018186
    13  C    0.075500
    14  C    0.121221
    15  C    0.098884
    16  C   -0.186835
    17  H    0.010499
    18  H    0.006880
    19  H    0.011319
    20  H    0.008717
    21  H    0.057023
    22  H    0.043461
    23  N   -0.138242
    24  H    0.014288
    25  H    0.036293
    26  H    0.060635
    27  H    0.046045
    28  C    0.656989
    29  C    0.651419
    30  F   -0.260811
    31  F   -0.274238
    32  F   -0.257201
    33  F   -0.256334
    34  F   -0.263215
    35  F   -0.269182
 Sum of ESP charges =   0.00000
 ESP charges with hydrogens summed into heavy atoms:
               1
     1  C    0.018202
     2  C   -0.023625
     3  C   -0.044917
     4  C    0.219406
     5  C   -0.088829
     6  C    0.029153
    11  B   -0.084321
    12  C    0.088494
    13  C    0.126081
    14  C    0.138601
    15  C    0.118920
    16  C   -0.086351
    23  N   -0.138242
    28  C    0.656989
    29  C    0.651419
    30  F   -0.260811
    31  F   -0.274238
    32  F   -0.257201
    33  F   -0.256334
    34  F   -0.263215
    35  F   -0.269182
 Charge=   0.00000 Dipole=    -6.0478     5.1688     0.2923 Tot=     7.9610
 -----------------------------------------------------------------

              Electrostatic Properties (Atomic Units)

 -----------------------------------------------------------------
    Center     Electric         -------- Electric Field --------
               Potential          X             Y             Z
 -----------------------------------------------------------------
    1 Atom    -14.757455
    2 Atom    -14.760136
    3 Atom    -14.782104
    4 Atom    -14.720743
    5 Atom    -14.741143
    6 Atom    -14.749644
    7 Atom     -1.093278
    8 Atom     -1.100797
    9 Atom     -1.062375
   10 Atom     -1.084901
   11 Atom    -11.432816
   12 Atom    -14.710010
   13 Atom    -14.710181
   14 Atom    -14.752146
   15 Atom    -14.752037
   16 Atom    -14.752292
   17 Atom     -1.096215
   18 Atom     -1.109067
   19 Atom     -1.096116
   20 Atom     -1.108768
   21 Atom     -1.105213
   22 Atom     -1.101330
   23 Atom    -18.290248
   24 Atom     -1.087620
   25 Atom     -1.075916
   26 Atom     -1.075675
   27 Atom     -1.087311
   28 Atom    -14.557416
   29 Atom    -14.557405
   30 Atom    -26.596690
   31 Atom    -26.587333
   32 Atom    -26.590050
   33 Atom    -26.590272
   34 Atom    -26.596719
   35 Atom    -26.586920
 -----------------------------------------------------------------
 Unable to Open any file for archive entry.
 1\1\GINC-IRENE5983\SP\RwB97XD\GenECP\C13H14B1F6N1\PENASFRA\11-Apr-2024
 \0\\# wb97xd/genecp scrf=(solvent=toluene,pcm) nosymm pop=(chelpg) scf
 cyc=300\\cf3_benzopiperidine_chelpg\\0,1\C,0,-0.739162,0.813929,0.4362
 95\C,0,0.641251,0.743409,0.25015\C,0,1.312166,1.927548,-0.019007\C,0,0
 .596244,3.100336,-0.08929\C,0,-0.768374,3.223385,0.084763\C,0,-1.43096
 9,2.026429,0.354724\H,0,-1.296796,-0.091486,0.649038\H,0,1.158312,-0.2
 06978,0.315165\H,0,-1.300832,4.165117,0.020523\H,0,-2.50446,2.035539,0
 .50476\B,0,2.67423,2.690484,-0.343349\C,0,1.4154,4.804136,-1.669992\C,
 0,1.759806,5.10345,0.721119\C,0,2.521203,5.799726,-1.983972\C,0,2.8745
 24,6.105765,0.468849\C,0,2.676937,6.824114,-0.863342\H,0,2.273623,6.28
 7002,-2.930364\H,0,3.461848,5.266222,-2.136406\H,0,2.881561,6.814495,1
 .30074\H,0,3.839056,5.593231,0.478482\H,0,3.521432,7.485808,-1.067866\
 H,0,1.7797,7.453012,-0.812518\N,0,1.653549,4.084219,-0.375642\H,0,1.89
 1181,4.571665,1.659096\H,0,0.792281,5.616337,0.756205\H,0,0.458456,5.3
 2602,-1.559053\H,0,1.301426,4.058619,-2.451889\C,0,3.350781,2.297397,-
 1.778202\C,0,3.798804,2.666601,0.840779\F,0,3.896036,1.061645,-1.71917
 5\F,0,2.465442,2.245034,-2.810807\F,0,4.344777,3.121205,-2.199723\F,0,
 4.855382,3.499372,0.653619\F,0,4.323163,1.42652,0.965259\F,0,3.315073,
 2.971531,2.075798\\Version=AS64L-G16RevC.02\HF=-1182.5178159\RMSD=4.94
 9e-09\Dipole=-2.3516962,2.0432015,0.1082959\Quadrupole=-21.7837186,30.
 4077416,-8.624023,-2.9497426,0.5655269,-3.1650673\PG=C01 [X(C13H14B1F6
 N1)]\\@
 The archive entry for this job was punched.


 A FOOL CAN ASK MORE QUESTIONS THAN
 A WISE MAN CAN ANSWER.
 Job cpu time:       0 days  1 hours 42 minutes 36.4 seconds.
 Elapsed time:       0 days  0 hours  1 minutes  1.9 seconds.
 File lengths (MBytes):  RWF=    271 Int=      0 D2E=      0 Chk=     20 Scr=      1
 Normal termination of Gaussian 16 at Thu Apr 11 15:33:03 2024.
