 Entering Gaussian System, Link 0=/ccc/products/gaussian-16-C.02/system/default/g16/g16
 Input=cl_benzopiperidine_chelpg.gjf
 Output=cl_benzopiperidine_chelpg.log
 Initial command:
 /ccc/products/gaussian-16-C.02/system/default/g16/l1.exe "/ccc/scratch/cont003/gen7343/penasfra/flp/b-n_flp/cl_benzopiperidine/reac/Gau-237796.inp" -scrdir="/ccc/scratch/cont003/gen7343/penasfra/flp/b-n_flp/cl_benzopiperidine/reac/"
 Entering Link 1 = /ccc/products/gaussian-16-C.02/system/default/g16/l1.exe PID=    237845.
  
 Copyright (c) 1988-2021, Gaussian, Inc.  All Rights Reserved.
  
 This is part of the Gaussian(R) 16 program.  It is based on
 the Gaussian(R) 09 system (copyright 2009, Gaussian, Inc.),
 the Gaussian(R) 03 system (copyright 2003, Gaussian, Inc.),
 the Gaussian(R) 98 system (copyright 1998, Gaussian, Inc.),
 the Gaussian(R) 94 system (copyright 1995, Gaussian, Inc.),
 the Gaussian 92(TM) system (copyright 1992, Gaussian, Inc.),
 the Gaussian 90(TM) system (copyright 1990, Gaussian, Inc.),
 the Gaussian 88(TM) system (copyright 1988, Gaussian, Inc.),
 the Gaussian 86(TM) system (copyright 1986, Carnegie Mellon
 University), and the Gaussian 82(TM) system (copyright 1983,
 Carnegie Mellon University). Gaussian is a federally registered
 trademark of Gaussian, Inc.
  
 This software contains proprietary and confidential information,
 including trade secrets, belonging to Gaussian, Inc.
  
 This software is provided under written license and may be
 used, copied, transmitted, or stored only in accord with that
 written license.
  
 The following legend is applicable only to US Government
 contracts under FAR:
  
                    RESTRICTED RIGHTS LEGEND
  
 Use, reproduction and disclosure by the US Government is
 subject to restrictions as set forth in subparagraphs (a)
 and (c) of the Commercial Computer Software - Restricted
 Rights clause in FAR 52.227-19.
  
 Gaussian, Inc.
 340 Quinnipiac St., Bldg. 40, Wallingford CT 06492
  
  
 ---------------------------------------------------------------
 Warning -- This program may not be used in any manner that
 competes with the business of Gaussian, Inc. or will provide
 assistance to any competitor of Gaussian, Inc.  The licensee
 of this program is prohibited from giving any competitor of
 Gaussian, Inc. access to this program.  By using this program,
 the user acknowledges that Gaussian, Inc. is engaged in the
 business of creating and licensing software in the field of
 computational chemistry and represents and warrants to the
 licensee that it is not a competitor of Gaussian, Inc. and that
 it will not use this program in any manner prohibited above.
 ---------------------------------------------------------------
  

 Cite this work as:
 Gaussian 16, Revision C.02,
 M. J. Frisch, G. W. Trucks, H. B. Schlegel, G. E. Scuseria, 
 M. A. Robb, J. R. Cheeseman, G. Scalmani, V. Barone, 
 G. A. Petersson, H. Nakatsuji, X. Li, M. Caricato, A. V. Marenich, 
 J. Bloino, B. G. Janesko, R. Gomperts, B. Mennucci, H. P. Hratchian, 
 J. V. Ortiz, A. F. Izmaylov, J. L. Sonnenberg, D. Williams-Young, 
 F. Ding, F. Lipparini, F. Egidi, J. Goings, B. Peng, A. Petrone, 
 T. Henderson, D. Ranasinghe, V. G. Zakrzewski, J. Gao, N. Rega, 
 G. Zheng, W. Liang, M. Hada, M. Ehara, K. Toyota, R. Fukuda, 
 J. Hasegawa, M. Ishida, T. Nakajima, Y. Honda, O. Kitao, H. Nakai, 
 T. Vreven, K. Throssell, J. A. Montgomery, Jr., J. E. Peralta, 
 F. Ogliaro, M. J. Bearpark, J. J. Heyd, E. N. Brothers, K. N. Kudin, 
 V. N. Staroverov, T. A. Keith, R. Kobayashi, J. Normand, 
 K. Raghavachari, A. P. Rendell, J. C. Burant, S. S. Iyengar, 
 J. Tomasi, M. Cossi, J. M. Millam, M. Klene, C. Adamo, R. Cammi, 
 J. W. Ochterski, R. L. Martin, K. Morokuma, O. Farkas, 
 J. B. Foresman, and D. J. Fox, Gaussian, Inc., Wallingford CT, 2019.
 
 ******************************************
 Gaussian 16:  AS64L-G16RevC.02  7-Dec-2021
                11-Apr-2024 
 ******************************************
 %nprocshared=128
 Will use up to  128 processors via shared memory.
 %mem=30GB
 %chk=cl_benzopiperidine_chelpg.chk
 ----------------------------------------------------------------------
 # wb97xd/genecp scrf=(solvent=toluene,pcm) nosymm pop=(chelpg) scfcyc=
 300
 ----------------------------------------------------------------------
 1/38=1,172=1/1;
 2/12=2,15=1,17=6,18=5,40=1/2;
 3/5=7,11=2,16=1,17=8,25=1,30=1,70=2201,72=13,74=-58/1,2,3;
 4//1;
 5/5=2,7=300,38=5,53=13/2;
 6/7=2,8=2,9=2,10=2,15=8,20=3,28=1/1,2;
 99/5=1,9=1/99;
 -------------------------
 cl_benzopiperidine_chelpg
 -------------------------
 Symbolic Z-matrix:
 Charge =  0 Multiplicity = 1
 C                    -0.59581   0.94084   0.66973 
 C                     0.7812    1.06639   0.7784 
 C                     1.4657    2.17941   0.26856 
 C                     0.71506   3.24052  -0.29733 
 C                    -0.6742    3.10177  -0.40235 
 C                    -1.31535   1.96092   0.06157 
 H                    -1.09753   0.05928   1.05008 
 H                     1.34806   0.2633    1.23732 
 H                    -1.26829   3.90121  -0.82535 
 H                    -2.39347   1.88514  -0.03114 
 B                     3.00735   2.08225   0.21468 
 C                     0.66023   5.2886   -1.6364 
 C                     2.12164   5.14321   0.29286 
 C                     1.63813   6.22812  -2.33683 
 C                     3.13708   6.08531  -0.33984 
 C                     2.45266   7.03033  -1.32516 
 H                     1.07778   6.89379  -2.99959 
 H                     2.31072   5.63044  -2.96137 
 H                     3.64204   6.6471    0.45113 
 H                     3.89533   5.49221  -0.8609 
 H                     3.19098   7.65522  -1.83467 
 H                     1.78507   7.70669  -0.77598 
 N                     1.37074   4.40161  -0.72526 
 H                     2.62197   4.44295   0.96323 
 H                     1.4177    5.7254    0.91485 
 H                    -0.09899   5.8872   -1.10028 
 H                     0.14027   4.68066  -2.37914 
 Cl                    3.95911   2.5029   -1.21217 
 Cl                    3.91957   1.40114   1.57454 
 
                          Input orientation:                          
 ---------------------------------------------------------------------
 Center     Atomic      Atomic             Coordinates (Angstroms)
 Number     Number       Type             X           Y           Z
 ---------------------------------------------------------------------
      1          6           0       -0.595808    0.940839    0.669728
      2          6           0        0.781201    1.066388    0.778403
      3          6           0        1.465696    2.179406    0.268563
      4          6           0        0.715064    3.240518   -0.297328
      5          6           0       -0.674196    3.101774   -0.402349
      6          6           0       -1.315345    1.960916    0.061571
      7          1           0       -1.097531    0.059283    1.050084
      8          1           0        1.348058    0.263298    1.237323
      9          1           0       -1.268288    3.901209   -0.825348
     10          1           0       -2.393473    1.885136   -0.031138
     11          5           0        3.007353    2.082249    0.214682
     12          6           0        0.660227    5.288596   -1.636395
     13          6           0        2.121642    5.143212    0.292861
     14          6           0        1.638132    6.228122   -2.336831
     15          6           0        3.137078    6.085306   -0.339844
     16          6           0        2.452658    7.030334   -1.325162
     17          1           0        1.077781    6.893785   -2.999593
     18          1           0        2.310717    5.630435   -2.961374
     19          1           0        3.642042    6.647100    0.451133
     20          1           0        3.895326    5.492206   -0.860896
     21          1           0        3.190978    7.655219   -1.834668
     22          1           0        1.785071    7.706690   -0.775978
     23          7           0        1.370739    4.401611   -0.725255
     24          1           0        2.621969    4.442953    0.963229
     25          1           0        1.417702    5.725395    0.914854
     26          1           0       -0.098993    5.887196   -1.100284
     27          1           0        0.140265    4.680662   -2.379144
     28         17           0        3.959107    2.502904   -1.212165
     29         17           0        3.919570    1.401135    1.574540
 ---------------------------------------------------------------------
                    Distance matrix (angstroms):
                    1          2          3          4          5
     1  C    0.000000
     2  C    1.386985   0.000000
     3  C    2.438192   1.402597   0.000000
     4  C    2.818174   2.426605   1.417618   0.000000
     5  C    2.413531   2.766795   2.424876   1.400115   0.000000
     6  C    1.388577   2.389463   2.797280   2.426675   1.388471
     7  H    1.083299   2.148885   3.416991   3.901445   3.397871
     8  H    2.135378   1.084845   2.150303   3.408764   3.851621
     9  H    3.383973   3.848199   3.411146   2.156155   1.082114
    10  H    2.148141   3.377019   3.881958   3.401605   2.138672
    11  B    3.806922   2.511077   1.545655   2.618841   3.869620
    12  C    5.079254   4.865483   3.734261   2.447597   2.843544
    13  C    5.018616   4.318915   3.035622   2.438653   3.530934
    14  C    6.479602   6.089541   4.817667   3.733283   4.343171
    15  C    6.435776   5.655985   4.291821   3.736412   4.840576
    16  C    7.096103   6.541208   5.200534   4.293994   5.105133
    17  H    7.190437   6.951242   5.749495   4.558526   4.918785
    18  H    6.604930   6.095562   4.801682   3.918540   4.674659
    19  H    7.111158   6.279798   4.972937   4.553262   5.650458
    20  H    6.574803   5.654462   4.260683   3.937229   5.177351
    21  H    8.105223   7.486512   6.114303   5.289910   6.142066
    22  H    7.316788   6.893291   5.634176   4.617436   5.233817
    23  N    4.217846   3.705706   2.436162   1.400417   2.444505
    24  H    4.764980   3.850166   2.634990   2.582855   3.811597
    25  H    5.196757   4.704264   3.604724   2.852665   3.604781
    26  H    5.276951   5.248276   4.250847   2.883111   2.928574
    27  H    4.880953   4.841888   3.876003   2.595836   2.657810
    28  Cl   5.169992   4.015598   2.917928   3.450336   4.741513
    29  Cl   4.628088   3.255035   2.886655   4.141990   5.282324
                    6          7          8          9         10
     6  C    0.000000
     7  H    2.154254   0.000000
     8  H    3.370165   2.461216   0.000000
     9  H    2.133911   4.278644   4.932978   0.000000
    10  H    1.084757   2.486412   4.270645   2.441590   0.000000
    11  B    4.327110   4.651920   2.666015   4.761448   5.410009
    12  C    4.226042   6.136171   5.829664   2.510341   4.846181
    13  C    4.689710   6.064882   5.030308   3.779496   5.577302
    14  C    5.717028   7.550472   6.959730   4.018256   6.358584
    15  C    6.082417   7.495116   6.291568   4.940976   6.951527
    16  C    6.466829   8.175646   7.319785   4.887400   7.185579
    17  H    6.279409   8.236643   7.873237   4.380284   6.778488
    18  H    5.979289   7.664573   6.882000   4.512439   6.689017
    19  H    6.832845   8.137667   6.828864   5.768939   7.703008
    20  H    6.361764   7.622147   6.183250   5.403281   7.297153
    21  H    7.505182   9.187565   8.214255   5.915773   8.229986
    22  H    6.582400   8.374170   7.723241   4.879254   7.204548
    23  N    3.713642   5.300943   4.580160   2.687914   4.580801
    24  H    4.740879   5.749677   4.378070   4.315854   5.717154
    25  H    4.729581   6.200767   5.472051   3.683816   5.492499
    26  H    4.271428   6.291719   6.259919   2.320988   4.735419
    27  H    3.933562   5.886331   5.835298   2.237376   4.443864
    28  Cl   5.453072   6.054638   4.222961   5.424992   6.490896
    29  Cl   5.477843   5.219859   2.832148   6.238886   6.531996
                   11         12         13         14         15
    11  B    0.000000
    12  C    4.383623   0.000000
    13  C    3.187490   2.424644   0.000000
    14  C    5.057000   1.526309   2.885497   0.000000
    15  C    4.043364   2.906989   1.522815   2.501038   0.000000
    16  C    5.211751   2.518596   2.507748   1.526588   1.527207
    17  H    6.099647   2.146926   3.872261   1.093780   3.459567
    18  H    4.812718   2.143954   3.295934   1.095287   2.786072
    19  H    4.614824   3.885168   2.144375   3.458893   1.093730
    20  H    3.684178   3.332975   2.144506   2.795511   1.094625
    21  H    5.940669   3.470579   3.461219   2.167972   2.168417
    22  H    5.840352   2.802279   2.797698   2.154998   2.155695
    23  N    2.990222   1.456621   1.466420   2.450473   2.470491
    24  H    2.506345   3.364757   1.090909   3.878809   2.158856
    25  H    4.036055   2.696930   1.105144   3.297693   2.158716
    26  H    5.084894   1.105510   2.724993   2.159371   3.330116
    27  H    4.658313   1.091614   3.358484   2.154073   3.887500
    28  Cl   1.765978   4.338509   3.551423   4.530899   3.777602
    29  Cl   1.773491   6.003813   4.344927   6.618428   5.120412
                   16         17         18         19         20
    16  C    0.000000
    17  H    2.170864   0.000000
    18  H    2.158021   1.765685   0.000000
    19  H    2.171803   4.306251   3.801478   0.000000
    20  H    2.159322   3.804866   2.634787   1.766169   0.000000
    21  H    1.093249   2.530303   2.478725   2.538631   2.474462
    22  H    1.097603   2.470939   3.059917   2.465132   3.060119
    23  N    2.905275   3.386646   2.719153   3.403664   2.753422
    24  H    3.458315   4.908671   4.112116   2.482147   2.459635
    25  H    2.791357   4.099217   3.978899   2.451992   3.057170
    26  H    2.805041   2.450590   3.055533   4.120642   4.020934
    27  H    3.461069   2.482299   2.439656   4.913226   4.130879
    28  Cl   4.772817   5.547682   3.944410   4.476768   3.010546
    29  Cl   6.499845   7.692052   6.407020   5.372077   4.761176
                   21         22         23         24         25
    21  H    0.000000
    22  H    1.760695   0.000000
    23  N    3.889734   3.331335   0.000000
    24  H    4.297750   3.791730   2.101967   0.000000
    25  H    3.798500   2.630476   2.108214   1.759902   0.000000
    26  H    3.806460   2.639210   2.123140   3.707770   2.527316
    27  H    4.295497   3.798996   2.080213   4.169750   3.684255
    28  Cl   5.246321   5.656508   3.246817   3.206878   4.622488
    29  Cl   7.160106   7.059819   4.559436   3.363053   5.039222
                   26         27         28         29
    26  H    0.000000
    27  H    1.774388   0.000000
    28  Cl   5.285274   4.548409   0.000000
    29  Cl   6.590013   6.377308   2.996862   0.000000
 Symmetry turned off by external request.
 Stoichiometry    C11H14BCl2N
 Framework group  C1[X(C11H14BCl2N)]
 Deg. of freedom    81
 Full point group                 C1      NOp   1
 Rotational constants (GHZ):           0.5878516           0.4170127           0.2820993
 General basis read from cards:  (5D, 7F)
 ======================================================================================================
                                       Pseudopotential Parameters
 ======================================================================================================
  Center     Atomic      Valence      Angular      Power
  Number     Number     Electrons     Momentum     of R      Exponent        Coefficient   SO-Coeffient
 ======================================================================================================
    1          6
                                   No pseudopotential on this center.
    2          6
                                   No pseudopotential on this center.
    3          6
                                   No pseudopotential on this center.
    4          6
                                   No pseudopotential on this center.
    5          6
                                   No pseudopotential on this center.
    6          6
                                   No pseudopotential on this center.
    7          1
                                   No pseudopotential on this center.
    8          1
                                   No pseudopotential on this center.
    9          1
                                   No pseudopotential on this center.
   10          1
                                   No pseudopotential on this center.
   11          5
                                   No pseudopotential on this center.
   12          6
                                   No pseudopotential on this center.
   13          6
                                   No pseudopotential on this center.
   14          6
                                   No pseudopotential on this center.
   15          6
                                   No pseudopotential on this center.
   16          6
                                   No pseudopotential on this center.
   17          1
                                   No pseudopotential on this center.
   18          1
                                   No pseudopotential on this center.
   19          1
                                   No pseudopotential on this center.
   20          1
                                   No pseudopotential on this center.
   21          1
                                   No pseudopotential on this center.
   22          1
                                   No pseudopotential on this center.
   23          7
                                   No pseudopotential on this center.
   24          1
                                   No pseudopotential on this center.
   25          1
                                   No pseudopotential on this center.
   26          1
                                   No pseudopotential on this center.
   27          1
                                   No pseudopotential on this center.
   28         17
                                   No pseudopotential on this center.
   29         17
                                   No pseudopotential on this center.
 ======================================================================================================
   444 basis functions,   700 primitive gaussians,   459 cartesian basis functions
    63 alpha electrons       63 beta electrons
       nuclear repulsion energy      1200.7481126003 Hartrees.
 NAtoms=   29 NActive=   29 NUniq=   29 SFac= 1.00D+00 NAtFMM=   60 NAOKFM=F Big=F
 Integral buffers will be    131072 words long.
 Raffenetti 2 integral format.
 Two-electron integral symmetry is turned off.
 Nuclear repulsion after empirical dispersion term =     1200.7236754776 Hartrees.
 ------------------------------------------------------------------------------
 Polarizable Continuum Model (PCM)
 =================================
 Model                : PCM.
 Atomic radii         : UFF (Universal Force Field).
 Polarization charges : Total charges.
 Charge compensation  : None.
 Solution method      : On-the-fly selection.
 Cavity type          : Scaled VdW (van der Waals Surface) (Alpha=1.100).
 Cavity algorithm     : GePol (No added spheres)
                        Default sphere list used, NSphG=   29.
                        Lebedev-Laikov grids with approx.  5.0 points / Ang**2.
                        Smoothing algorithm: York/Karplus (Gamma=1.0000).
                        Polarization charges: spherical gaussians, with
                                              point-specific exponents (IZeta= 3).
                        Self-potential: point-specific (ISelfS= 7).
                        Self-field    : sphere-specific E.n sum rule (ISelfD= 2).
 Solvent              : Toluene, Eps=   2.374100 Eps(inf)=   2.238315
 ------------------------------------------------------------------------------
 One-electron integrals computed using PRISM.
   1 Symmetry operations used in ECPInt.
 ECPInt:  NShTT=   15225 NPrTT=   50737 LenC2=   14225 LenP2D=   34085.
 LDataN:  DoStor=T MaxTD1= 4 Len=   56
 Number of processors reduced to  98 by ecpmxn.
 NBasis=   444 RedAO= T EigKep=  2.51D-06  NBF=   444
 NBsUse=   442 1.00D-06 EigRej=  8.76D-07 NBFU=   442
 ExpMin= 3.15D-02 ExpMax= 1.06D+05 ExpMxC= 3.62D+03 IAcc=3 IRadAn=         5 AccDes= 0.00D+00
 Harris functional with IExCor= 4639 and IRadAn=       5 diagonalized for initial guess.
 HarFok:  IExCor= 4639 AccDes= 0.00D+00 IRadAn=         5 IDoV= 1 UseB2=F ITyADJ=14
 ICtDFT=  3500011 ScaDFX=  1.000000  1.000000  1.000000  1.000000
 FoFCou: FMM=F IPFlag=           0 FMFlag=      100000 FMFlg1=           0
         NFxFlg=           0 DoJE=T BraDBF=F KetDBF=T FulRan=T
         wScrn=  0.000000 ICntrl=       500 IOpCl=  0 I1Cent=   200000004 NGrid=           0
         NMat0=    1 NMatS0=      1 NMatT0=    0 NMatD0=    1 NMtDS0=    0 NMtDT0=    0
 Symmetry not used in FoFCou.
 Requested convergence on RMS density matrix=1.00D-08 within 300 cycles.
 Requested convergence on MAX density matrix=1.00D-06.
 Requested convergence on             energy=1.00D-06.
 No special actions if energy rises.
 Inv3:  Mode=1 IEnd=    13700307.
 Iteration    1 A*A^-1 deviation from unit magnitude is 3.55D-15 for   2125.
 Iteration    1 A*A^-1 deviation from orthogonality  is 3.72D-15 for   2137   2027.
 Iteration    1 A^-1*A deviation from unit magnitude is 3.33D-15 for   2125.
 Iteration    1 A^-1*A deviation from orthogonality  is 1.55D-15 for   1561   1104.
 Error on total polarization charges =  0.01148
 SCF Done:  E(RwB97XD) =  -1427.68613540     A.U. after   16 cycles
            NFock= 16  Conv=0.74D-08     -V/T= 2.0030

 **********************************************************************

            Population analysis using the SCF Density.

 **********************************************************************

 Alpha  occ. eigenvalues -- -101.72291-101.72026 -14.44487 -10.34023 -10.31725
 Alpha  occ. eigenvalues --  -10.31342 -10.30227 -10.30065 -10.29102 -10.28858
 Alpha  occ. eigenvalues --  -10.28774 -10.28062 -10.28007 -10.27979  -9.59339
 Alpha  occ. eigenvalues --   -9.59092  -7.33990  -7.33752  -7.33480  -7.33293
 Alpha  occ. eigenvalues --   -7.33226  -7.33035  -6.95476  -1.05887  -0.96882
 Alpha  occ. eigenvalues --   -0.95690  -0.92358  -0.90733  -0.86780  -0.85481
 Alpha  occ. eigenvalues --   -0.84261  -0.75641  -0.73868  -0.70371  -0.69490
 Alpha  occ. eigenvalues --   -0.65392  -0.63815  -0.59781  -0.57360  -0.57224
 Alpha  occ. eigenvalues --   -0.55555  -0.54834  -0.53055  -0.52423  -0.51356
 Alpha  occ. eigenvalues --   -0.50793  -0.50736  -0.49838  -0.48089  -0.46432
 Alpha  occ. eigenvalues --   -0.45499  -0.44944  -0.44255  -0.43334  -0.41845
 Alpha  occ. eigenvalues --   -0.41226  -0.40685  -0.40497  -0.39983  -0.39508
 Alpha  occ. eigenvalues --   -0.36102  -0.34124  -0.28583
 Alpha virt. eigenvalues --   -0.00245   0.03958   0.04736   0.05129   0.05154
 Alpha virt. eigenvalues --    0.05594   0.06330   0.06357   0.06998   0.07495
 Alpha virt. eigenvalues --    0.07700   0.08154   0.08592   0.08695   0.09701
 Alpha virt. eigenvalues --    0.10072   0.10771   0.11017   0.11864   0.12055
 Alpha virt. eigenvalues --    0.13010   0.13161   0.13729   0.14738   0.15447
 Alpha virt. eigenvalues --    0.15694   0.16223   0.16538   0.16679   0.16801
 Alpha virt. eigenvalues --    0.16979   0.17384   0.17596   0.17788   0.18389
 Alpha virt. eigenvalues --    0.18648   0.19126   0.19240   0.19569   0.19619
 Alpha virt. eigenvalues --    0.19802   0.20136   0.20754   0.20971   0.21189
 Alpha virt. eigenvalues --    0.21358   0.21682   0.21864   0.22020   0.22505
 Alpha virt. eigenvalues --    0.22828   0.23032   0.23313   0.23540   0.23800
 Alpha virt. eigenvalues --    0.24233   0.24654   0.25066   0.25432   0.25671
 Alpha virt. eigenvalues --    0.26197   0.26473   0.27003   0.27382   0.27610
 Alpha virt. eigenvalues --    0.27933   0.28054   0.28880   0.29795   0.30283
 Alpha virt. eigenvalues --    0.30706   0.31098   0.31697   0.32131   0.32410
 Alpha virt. eigenvalues --    0.32491   0.32786   0.33476   0.33735   0.34110
 Alpha virt. eigenvalues --    0.34906   0.35338   0.35834   0.36309   0.36562
 Alpha virt. eigenvalues --    0.36835   0.37610   0.38325   0.38883   0.38971
 Alpha virt. eigenvalues --    0.39664   0.40350   0.40778   0.41414   0.41903
 Alpha virt. eigenvalues --    0.42146   0.42952   0.43335   0.44349   0.44989
 Alpha virt. eigenvalues --    0.46786   0.47425   0.48012   0.48366   0.51208
 Alpha virt. eigenvalues --    0.53469   0.54356   0.55304   0.56081   0.57041
 Alpha virt. eigenvalues --    0.57301   0.57732   0.59148   0.60028   0.60281
 Alpha virt. eigenvalues --    0.60997   0.62164   0.62620   0.63596   0.63769
 Alpha virt. eigenvalues --    0.64222   0.65020   0.65690   0.66439   0.66879
 Alpha virt. eigenvalues --    0.68531   0.69052   0.69191   0.70035   0.71705
 Alpha virt. eigenvalues --    0.71822   0.71889   0.73100   0.74090   0.74603
 Alpha virt. eigenvalues --    0.75040   0.76287   0.77067   0.77863   0.78507
 Alpha virt. eigenvalues --    0.78880   0.79579   0.80082   0.81416   0.82029
 Alpha virt. eigenvalues --    0.82555   0.83777   0.84359   0.85159   0.85444
 Alpha virt. eigenvalues --    0.85810   0.86434   0.86698   0.87329   0.89015
 Alpha virt. eigenvalues --    0.89645   0.90110   0.91880   0.92681   0.93911
 Alpha virt. eigenvalues --    0.94507   0.94864   0.95714   0.97240   0.97964
 Alpha virt. eigenvalues --    0.98687   0.99034   0.99812   1.00351   1.01428
 Alpha virt. eigenvalues --    1.01935   1.02290   1.03315   1.03939   1.05727
 Alpha virt. eigenvalues --    1.06398   1.06723   1.08541   1.09591   1.11507
 Alpha virt. eigenvalues --    1.12576   1.14605   1.14828   1.16336   1.16828
 Alpha virt. eigenvalues --    1.18463   1.19072   1.20279   1.21956   1.23687
 Alpha virt. eigenvalues --    1.24870   1.26442   1.29654   1.31316   1.33264
 Alpha virt. eigenvalues --    1.35751   1.36724   1.39706   1.42242   1.43034
 Alpha virt. eigenvalues --    1.46141   1.46585   1.50503   1.51638   1.54581
 Alpha virt. eigenvalues --    1.56911   1.59072   1.59698   1.59736   1.61983
 Alpha virt. eigenvalues --    1.62961   1.64455   1.65503   1.66003   1.66411
 Alpha virt. eigenvalues --    1.67370   1.68373   1.69056   1.69675   1.70758
 Alpha virt. eigenvalues --    1.71783   1.72097   1.73058   1.73908   1.74601
 Alpha virt. eigenvalues --    1.76156   1.77103   1.77429   1.78263   1.80755
 Alpha virt. eigenvalues --    1.82711   1.83441   1.83572   1.85095   1.86618
 Alpha virt. eigenvalues --    1.87627   1.89169   1.89345   1.90355   1.91814
 Alpha virt. eigenvalues --    1.92634   1.93394   1.93990   1.96303   1.98796
 Alpha virt. eigenvalues --    2.00626   2.01380   2.02370   2.02896   2.05918
 Alpha virt. eigenvalues --    2.06623   2.07730   2.09533   2.12199   2.13678
 Alpha virt. eigenvalues --    2.14082   2.14993   2.17054   2.18655   2.21317
 Alpha virt. eigenvalues --    2.25273   2.26996   2.27907   2.29362   2.32703
 Alpha virt. eigenvalues --    2.34847   2.36072   2.37537   2.38640   2.38935
 Alpha virt. eigenvalues --    2.40695   2.42699   2.43117   2.43802   2.44170
 Alpha virt. eigenvalues --    2.45921   2.46509   2.49401   2.52069   2.53840
 Alpha virt. eigenvalues --    2.55003   2.56249   2.56675   2.57681   2.58605
 Alpha virt. eigenvalues --    2.61175   2.62689   2.64624   2.66250   2.67817
 Alpha virt. eigenvalues --    2.69835   2.70574   2.73320   2.74156   2.76704
 Alpha virt. eigenvalues --    2.77694   2.78684   2.79350   2.80914   2.81994
 Alpha virt. eigenvalues --    2.83621   2.84141   2.85084   2.85678   2.87241
 Alpha virt. eigenvalues --    2.87914   2.89447   2.91301   2.93320   2.93872
 Alpha virt. eigenvalues --    2.95194   2.97299   2.98098   2.98202   2.99491
 Alpha virt. eigenvalues --    3.00913   3.02585   3.05024   3.06832   3.09091
 Alpha virt. eigenvalues --    3.11386   3.16080   3.17150   3.19872   3.22750
 Alpha virt. eigenvalues --    3.25301   3.32594   3.33983   3.44416   3.46530
 Alpha virt. eigenvalues --    3.48652   3.52497   3.55130   3.59969   3.65463
 Alpha virt. eigenvalues --    3.67284   3.68405   3.84477   3.88301   3.89139
 Alpha virt. eigenvalues --    3.92620   3.94499   3.97546   4.02942   4.06846
 Alpha virt. eigenvalues --    4.15300   4.20284   4.23766   4.25093   4.28191
 Alpha virt. eigenvalues --    4.31457   4.43984   4.45426   4.94344   4.98814
 Alpha virt. eigenvalues --    5.15741   9.90752  10.01879  14.56749  23.75177
 Alpha virt. eigenvalues --   23.98223  24.06307  24.07157  24.08180  24.08965
 Alpha virt. eigenvalues --   24.09168  24.09951  24.18330  24.22903  24.32419
 Alpha virt. eigenvalues --   26.11292  26.15730  26.20566  26.39003  26.54759
 Alpha virt. eigenvalues --   26.73330  35.76102 215.99572 216.11795
          Condensed to atoms (all electrons):
               1          2          3          4          5          6
     1  C    7.750183   0.430917  -2.365519   1.229363  -0.753414  -0.141691
     2  C    0.430917  16.058485  -5.954092  -6.029153   2.961481  -1.995447
     3  C   -2.365519  -5.954092  14.092668  -0.178532  -1.662122   3.075728
     4  C    1.229363  -6.029153  -0.178532  17.838256  -2.105784  -3.129526
     5  C   -0.753414   2.961481  -1.662122  -2.105784   9.633650  -1.940697
     6  C   -0.141691  -1.995447   3.075728  -3.129526  -1.940697  11.507213
     7  H    0.479049  -0.121713   0.031105   0.080822  -0.070877  -0.049241
     8  H    0.024559   0.855258  -0.540907  -0.144652   0.182237  -0.084284
     9  H   -0.015300   0.142960  -0.056027  -0.062642   0.533235  -0.243729
    10  H   -0.081663  -0.042847   0.075086   0.019033  -0.075542   0.461095
    11  B   -0.103129  -1.243727   0.471518   0.904531  -0.455184   0.212494
    12  C    0.056360   0.428043  -0.384783  -0.200776   0.112008  -0.909470
    13  C    0.012887  -0.378518  -0.468127   0.060786  -0.043074   0.097496
    14  C    0.047201   0.144910  -0.153336   0.222335  -0.428638  -0.371779
    15  C    0.027826   0.420052   0.219751  -0.686177   0.101950  -0.116716
    16  C   -0.008998   0.040739   0.009534   0.009274  -0.028362  -0.020125
    17  H   -0.000423  -0.000437  -0.008996   0.035442  -0.014372  -0.006858
    18  H    0.005775   0.015916   0.013192  -0.117382  -0.005250  -0.016581
    19  H   -0.001990  -0.010213  -0.000851  -0.001553   0.008047   0.006207
    20  H    0.007990   0.074912  -0.007388  -0.065911  -0.029363  -0.033483
    21  H   -0.000441  -0.001574  -0.000933   0.018427   0.003100   0.002096
    22  H    0.001734   0.003444   0.003834  -0.034649  -0.005648  -0.006575
    23  N    0.102532   0.219761  -0.240111  -0.947993  -0.031293  -0.028436
    24  H   -0.016994  -0.119535   0.087143  -0.045409   0.010444   0.052420
    25  H    0.003035  -0.011024  -0.001254   0.045715   0.009559   0.008701
    26  H    0.003110  -0.023179   0.010318  -0.137796   0.049802   0.067521
    27  H   -0.001966  -0.009827   0.019583   0.077830   0.032657   0.023087
    28  Cl  -0.040570  -0.118007  -0.246742  -0.049813  -0.089741  -0.044194
    29  Cl  -0.076349   0.245232  -0.373451  -0.171486   0.020606  -0.000510
               7          8          9         10         11         12
     1  C    0.479049   0.024559  -0.015300  -0.081663  -0.103129   0.056360
     2  C   -0.121713   0.855258   0.142960  -0.042847  -1.243727   0.428043
     3  C    0.031105  -0.540907  -0.056027   0.075086   0.471518  -0.384783
     4  C    0.080822  -0.144652  -0.062642   0.019033   0.904531  -0.200776
     5  C   -0.070877   0.182237   0.533235  -0.075542  -0.455184   0.112008
     6  C   -0.049241  -0.084284  -0.243729   0.461095   0.212494  -0.909470
     7  H    0.466208  -0.021438  -0.000050  -0.009215  -0.001696  -0.002025
     8  H   -0.021438   0.563266   0.005450   0.000346  -0.132326   0.015217
     9  H   -0.000050   0.005450   0.505388  -0.010785  -0.026118   0.056079
    10  H   -0.009215   0.000346  -0.010785   0.465519  -0.003272  -0.012077
    11  B   -0.001696  -0.132326  -0.026118  -0.003272   5.401332  -0.061632
    12  C   -0.002025   0.015217   0.056079  -0.012077  -0.061632   7.152476
    13  C   -0.001099  -0.005227  -0.010706  -0.005402   0.255444  -0.333682
    14  C    0.000305   0.003057   0.009484  -0.004239  -0.042118  -1.157499
    15  C   -0.000050   0.010128   0.006596  -0.001176  -0.176702   0.331065
    16  C   -0.000261   0.001639   0.006148  -0.000055  -0.016014   0.072258
    17  H   -0.000014   0.000053   0.000888  -0.000013   0.001021  -0.009508
    18  H    0.000082   0.000057   0.002271  -0.000707  -0.005001  -0.096024
    19  H    0.000001  -0.000512  -0.000529   0.000026   0.009580   0.001383
    20  H   -0.000255   0.003956   0.002311  -0.000214  -0.061197   0.027004
    21  H    0.000003  -0.000036  -0.000197   0.000041   0.001419  -0.004389
    22  H    0.000030   0.000037   0.001822  -0.000203  -0.003088  -0.073228
    23  N    0.001645  -0.000788  -0.024580  -0.012359  -0.016727   0.304943
    24  H    0.001433  -0.009326  -0.001101  -0.000380  -0.095051  -0.092848
    25  H   -0.000346   0.001417   0.003463   0.000101  -0.000258  -0.015665
    26  H    0.000038  -0.001162  -0.004756  -0.000325   0.013956   0.445287
    27  H   -0.000062   0.000116  -0.016093   0.002625  -0.015618   0.400560
    28  Cl  -0.001806   0.005715   0.000167  -0.000872   0.410985   0.084620
    29  Cl  -0.003536   0.040041   0.001072  -0.000523   0.408834   0.008304
              13         14         15         16         17         18
     1  C    0.012887   0.047201   0.027826  -0.008998  -0.000423   0.005775
     2  C   -0.378518   0.144910   0.420052   0.040739  -0.000437   0.015916
     3  C   -0.468127  -0.153336   0.219751   0.009534  -0.008996   0.013192
     4  C    0.060786   0.222335  -0.686177   0.009274   0.035442  -0.117382
     5  C   -0.043074  -0.428638   0.101950  -0.028362  -0.014372  -0.005250
     6  C    0.097496  -0.371779  -0.116716  -0.020125  -0.006858  -0.016581
     7  H   -0.001099   0.000305  -0.000050  -0.000261  -0.000014   0.000082
     8  H   -0.005227   0.003057   0.010128   0.001639   0.000053   0.000057
     9  H   -0.010706   0.009484   0.006596   0.006148   0.000888   0.002271
    10  H   -0.005402  -0.004239  -0.001176  -0.000055  -0.000013  -0.000707
    11  B    0.255444  -0.042118  -0.176702  -0.016014   0.001021  -0.005001
    12  C   -0.333682  -1.157499   0.331065   0.072258  -0.009508  -0.096024
    13  C    7.397737  -0.073042  -0.988524  -0.241864   0.006706  -0.000772
    14  C   -0.073042   8.077895  -0.171724  -0.145883   0.378892   0.560523
    15  C   -0.988524  -0.171724   6.814953  -0.038527   0.000920  -0.029022
    16  C   -0.241864  -0.145883  -0.038527   6.095834  -0.031996  -0.047870
    17  H    0.006706   0.378892   0.000920  -0.031996   0.499490  -0.016271
    18  H   -0.000772   0.560523  -0.029022  -0.047870  -0.016271   0.513394
    19  H   -0.018577  -0.015812   0.398897  -0.034924   0.000412  -0.002736
    20  H   -0.119738   0.004605   0.523590  -0.051033  -0.001446   0.007895
    21  H    0.002398  -0.040848  -0.042471   0.410532  -0.007992  -0.006195
    22  H   -0.042424   0.012088  -0.053963   0.509665  -0.005611   0.009089
    23  N    0.094408  -0.102162   0.058778  -0.049330  -0.000194   0.032191
    24  H    0.631730   0.056108  -0.146295  -0.084932  -0.002821   0.004661
    25  H    0.480982  -0.027177  -0.096125  -0.021747   0.002215  -0.002153
    26  H    0.041128  -0.124469  -0.013026  -0.034030  -0.006654   0.009308
    27  H   -0.023968  -0.056343   0.004339   0.008455  -0.008126  -0.018336
    28  Cl   0.148158   0.004551  -0.035083   0.021075   0.001031   0.015304
    29  Cl   0.051018  -0.005981  -0.023942   0.003615   0.000060   0.001405
              19         20         21         22         23         24
     1  C   -0.001990   0.007990  -0.000441   0.001734   0.102532  -0.016994
     2  C   -0.010213   0.074912  -0.001574   0.003444   0.219761  -0.119535
     3  C   -0.000851  -0.007388  -0.000933   0.003834  -0.240111   0.087143
     4  C   -0.001553  -0.065911   0.018427  -0.034649  -0.947993  -0.045409
     5  C    0.008047  -0.029363   0.003100  -0.005648  -0.031293   0.010444
     6  C    0.006207  -0.033483   0.002096  -0.006575  -0.028436   0.052420
     7  H    0.000001  -0.000255   0.000003   0.000030   0.001645   0.001433
     8  H   -0.000512   0.003956  -0.000036   0.000037  -0.000788  -0.009326
     9  H   -0.000529   0.002311  -0.000197   0.001822  -0.024580  -0.001101
    10  H    0.000026  -0.000214   0.000041  -0.000203  -0.012359  -0.000380
    11  B    0.009580  -0.061197   0.001419  -0.003088  -0.016727  -0.095051
    12  C    0.001383   0.027004  -0.004389  -0.073228   0.304943  -0.092848
    13  C   -0.018577  -0.119738   0.002398  -0.042424   0.094408   0.631730
    14  C   -0.015812   0.004605  -0.040848   0.012088  -0.102162   0.056108
    15  C    0.398897   0.523590  -0.042471  -0.053963   0.058778  -0.146295
    16  C   -0.034924  -0.051033   0.410532   0.509665  -0.049330  -0.084932
    17  H    0.000412  -0.001446  -0.007992  -0.005611  -0.000194  -0.002821
    18  H   -0.002736   0.007895  -0.006195   0.009089   0.032191   0.004661
    19  H    0.499530  -0.028983  -0.006945  -0.005509   0.013896  -0.004756
    20  H   -0.028983   0.602031  -0.011556   0.005040   0.010982  -0.038023
    21  H   -0.006945  -0.011556   0.508287  -0.011066  -0.006454  -0.000436
    22  H   -0.005509   0.005040  -0.011066   0.517702   0.023194   0.005814
    23  N    0.013896   0.010982  -0.006454   0.023194   7.481316  -0.075315
    24  H   -0.004756  -0.038023  -0.000436   0.005814  -0.075315   0.729526
    25  H   -0.004284   0.013436  -0.000858  -0.001271  -0.089720  -0.045515
    26  H    0.002002   0.000537  -0.001391   0.004664  -0.030789   0.000925
    27  H    0.000289  -0.000225   0.000460  -0.005548  -0.082436  -0.005809
    28  Cl  -0.001816   0.056324  -0.002679   0.000383  -0.012459  -0.068616
    29  Cl   0.001088  -0.002508  -0.000338   0.000086   0.007866   0.031922
              25         26         27         28         29
     1  C    0.003035   0.003110  -0.001966  -0.040570  -0.076349
     2  C   -0.011024  -0.023179  -0.009827  -0.118007   0.245232
     3  C   -0.001254   0.010318   0.019583  -0.246742  -0.373451
     4  C    0.045715  -0.137796   0.077830  -0.049813  -0.171486
     5  C    0.009559   0.049802   0.032657  -0.089741   0.020606
     6  C    0.008701   0.067521   0.023087  -0.044194  -0.000510
     7  H   -0.000346   0.000038  -0.000062  -0.001806  -0.003536
     8  H    0.001417  -0.001162   0.000116   0.005715   0.040041
     9  H    0.003463  -0.004756  -0.016093   0.000167   0.001072
    10  H    0.000101  -0.000325   0.002625  -0.000872  -0.000523
    11  B   -0.000258   0.013956  -0.015618   0.410985   0.408834
    12  C   -0.015665   0.445287   0.400560   0.084620   0.008304
    13  C    0.480982   0.041128  -0.023968   0.148158   0.051018
    14  C   -0.027177  -0.124469  -0.056343   0.004551  -0.005981
    15  C   -0.096125  -0.013026   0.004339  -0.035083  -0.023942
    16  C   -0.021747  -0.034030   0.008455   0.021075   0.003615
    17  H    0.002215  -0.006654  -0.008126   0.001031   0.000060
    18  H   -0.002153   0.009308  -0.018336   0.015304   0.001405
    19  H   -0.004284   0.002002   0.000289  -0.001816   0.001088
    20  H    0.013436   0.000537  -0.000225   0.056324  -0.002508
    21  H   -0.000858  -0.001391   0.000460  -0.002679  -0.000338
    22  H   -0.001271   0.004664  -0.005548   0.000383   0.000086
    23  N   -0.089720  -0.030789  -0.082436  -0.012459   0.007866
    24  H   -0.045515   0.000925  -0.005809  -0.068616   0.031922
    25  H    0.534230   0.011134  -0.000641   0.003241  -0.002279
    26  H    0.011134   0.583483  -0.037329   0.000607   0.000623
    27  H   -0.000641  -0.037329   0.538957  -0.007403  -0.001653
    28  Cl   0.003241   0.000607  -0.007403  16.979943  -0.087102
    29  Cl  -0.002279   0.000623  -0.001653  -0.087102  16.827711
 Mulliken charges:
               1
     1  C   -0.574074
     2  C    0.017184
     3  C    0.533708
     4  C   -0.432579
     5  C    0.080586
     6  C   -0.374717
     7  H    0.222964
     8  H    0.228109
     9  H    0.195280
    10  H    0.237996
    11  B   -0.632255
    12  C   -0.142003
    13  C   -0.526135
    14  C   -0.600905
    15  C   -0.299322
    16  C   -0.332819
    17  H    0.194599
    18  H    0.173237
    19  H    0.198631
    20  H    0.110710
    21  H    0.200036
    22  H    0.150158
    23  N    0.399632
    24  H    0.241038
    25  H    0.203085
    26  H    0.170462
    27  H    0.182424
    28  Cl   0.074796
    29  Cl   0.100174
 Sum of Mulliken charges =  -0.00000
 Mulliken charges with hydrogens summed into heavy atoms:
               1
     1  C   -0.351109
     2  C    0.245293
     3  C    0.533708
     4  C   -0.432579
     5  C    0.275866
     6  C   -0.136721
    11  B   -0.632255
    12  C    0.210883
    13  C   -0.082012
    14  C   -0.233069
    15  C    0.010019
    16  C    0.017375
    23  N    0.399632
    28  Cl   0.074796
    29  Cl   0.100174
 Electronic spatial extent (au):  <R**2>=          10802.8052
 Charge=             -0.0000 electrons
 Dipole moment (field-independent basis, Debye):
    X=             -2.4451    Y=              2.1513    Z=             -0.4320  Tot=              3.2853
 Quadrupole moment (field-independent basis, Debye-Ang):
   XX=           -110.6362   YY=            -82.5386   ZZ=           -105.2688
   XY=             -0.3848   XZ=              0.6569   YZ=             -4.9493
 Traceless Quadrupole moment (field-independent basis, Debye-Ang):
   XX=            -11.1550   YY=             16.9426   ZZ=             -5.7876
   XY=             -0.3848   XZ=              0.6569   YZ=             -4.9493
 Octapole moment (field-independent basis, Debye-Ang**2):
  XXX=           -621.6839  YYY=           -916.0861  ZZZ=             70.9084  XYY=           -161.9294
  XXY=           -352.2382  XXZ=             24.6615  XZZ=           -191.2300  YZZ=           -348.2098
  YYZ=              0.5715  XYZ=              3.5028
 Hexadecapole moment (field-independent basis, Debye-Ang**3):
 XXXX=          -4249.3632 YYYY=          -8919.1646 ZZZZ=           -935.8986 XXXY=          -2051.4448
 XXXZ=             94.1721 YYYX=          -1762.4789 YYYZ=            580.2036 ZZZX=             97.6325
 ZZZY=            698.2512 XXYY=          -2211.1171 XXZZ=           -833.1951 YYZZ=          -1725.2515
 XXYZ=            237.7460 YYXZ=             39.9431 ZZXY=           -659.0339
 N-N= 1.200723675478D+03 E-N=-5.766681519630D+03  KE= 1.423428910489D+03
 Breneman (CHELPG) radii used.
 Generate Potential Derived Charges using the Breneman model, NDens= 1.
 Grid spacing= 0.300 Box extension= 2.800
 NStep X,Y,Z=   41     46     35   Total possible points=       66010
 Number of Points to Fit=   16188

 **********************************************************************

            Electrostatic Properties Using The SCF Density.

 **********************************************************************

       Atomic Center    1 is at  -0.595808  0.940839  0.669728
       Atomic Center    2 is at   0.781201  1.066388  0.778403
       Atomic Center    3 is at   1.465696  2.179406  0.268563
       Atomic Center    4 is at   0.715064  3.240518 -0.297328
       Atomic Center    5 is at  -0.674196  3.101774 -0.402349
       Atomic Center    6 is at  -1.315345  1.960916  0.061571
       Atomic Center    7 is at  -1.097531  0.059283  1.050084
       Atomic Center    8 is at   1.348058  0.263298  1.237323
       Atomic Center    9 is at  -1.268288  3.901209 -0.825348
       Atomic Center   10 is at  -2.393473  1.885136 -0.031138
       Atomic Center   11 is at   3.007353  2.082249  0.214682
       Atomic Center   12 is at   0.660227  5.288596 -1.636395
       Atomic Center   13 is at   2.121642  5.143212  0.292861
       Atomic Center   14 is at   1.638132  6.228122 -2.336831
       Atomic Center   15 is at   3.137078  6.085306 -0.339844
       Atomic Center   16 is at   2.452658  7.030334 -1.325162
       Atomic Center   17 is at   1.077781  6.893785 -2.999593
       Atomic Center   18 is at   2.310717  5.630435 -2.961374
       Atomic Center   19 is at   3.642042  6.647100  0.451133
       Atomic Center   20 is at   3.895326  5.492206 -0.860896
       Atomic Center   21 is at   3.190978  7.655219 -1.834668
       Atomic Center   22 is at   1.785071  7.706690 -0.775978
       Atomic Center   23 is at   1.370739  4.401611 -0.725255
       Atomic Center   24 is at   2.621969  4.442953  0.963229
       Atomic Center   25 is at   1.417702  5.725395  0.914854
       Atomic Center   26 is at  -0.098993  5.887196 -1.100284
       Atomic Center   27 is at   0.140265  4.680662 -2.379144
       Atomic Center   28 is at   3.959107  2.502904 -1.212165
       Atomic Center   29 is at   3.919570  1.401135  1.574540
   16188 points will be used for fitting atomic charges
 Fitting point charges to electrostatic potential
 Charges from ESP fit, RMS=   0.00390 RRMS=   0.36718:
 ESP charges:
               1
     1  C   -0.184519
     2  C   -0.051964
     3  C   -0.205206
     4  C    0.334945
     5  C   -0.191056
     6  C   -0.074158
     7  H    0.122896
     8  H    0.096328
     9  H    0.104401
    10  H    0.115315
    11  B    0.410743
    12  C    0.216410
    13  C    0.324597
    14  C   -0.156915
    15  C   -0.102875
    16  C    0.086530
    17  H    0.029129
    18  H    0.070526
    19  H    0.013674
    20  H    0.056074
    21  H   -0.005214
    22  H   -0.005245
    23  N   -0.539049
    24  H   -0.049186
    25  H   -0.038876
    26  H    0.009819
    27  H    0.010476
    28  Cl  -0.201365
    29  Cl  -0.196234
 Sum of ESP charges =  -0.00000
 ESP charges with hydrogens summed into heavy atoms:
               1
     1  C   -0.061623
     2  C    0.044364
     3  C   -0.205206
     4  C    0.334945
     5  C   -0.086655
     6  C    0.041158
    11  B    0.410743
    12  C    0.236705
    13  C    0.236535
    14  C   -0.057260
    15  C   -0.033127
    16  C    0.076071
    23  N   -0.539049
    28  Cl  -0.201365
    29  Cl  -0.196234
 Charge=  -0.00000 Dipole=    -2.5554     2.0809    -0.4283 Tot=     3.3232
 -----------------------------------------------------------------

              Electrostatic Properties (Atomic Units)

 -----------------------------------------------------------------
    Center     Electric         -------- Electric Field --------
               Potential          X             Y             Z
 -----------------------------------------------------------------
    1 Atom    -14.774435
    2 Atom    -14.763448
    3 Atom    -14.776903
    4 Atom    -14.722082
    5 Atom    -14.770489
    6 Atom    -14.762291
    7 Atom     -1.101557
    8 Atom     -1.101782
    9 Atom     -1.094464
   10 Atom     -1.095589
   11 Atom    -11.357820
   12 Atom    -14.738433
   13 Atom    -14.736565
   14 Atom    -14.771288
   15 Atom    -14.773168
   16 Atom    -14.771276
   17 Atom     -1.117497
   18 Atom     -1.125374
   19 Atom     -1.119015
   20 Atom     -1.126955
   21 Atom     -1.122557
   22 Atom     -1.121724
   23 Atom    -18.378076
   24 Atom     -1.107935
   25 Atom     -1.116564
   26 Atom     -1.114155
   27 Atom     -1.110148
   28 Atom    -64.413607
   29 Atom    -64.410633
 -----------------------------------------------------------------
 Unable to Open any file for archive entry.
 1\1\GINC-IRENE5458\SP\RwB97XD\GenECP\C11H14B1Cl2N1\PENASFRA\11-Apr-202
 4\0\\# wb97xd/genecp scrf=(solvent=toluene,pcm) nosymm pop=(chelpg) sc
 fcyc=300\\cl_benzopiperidine_chelpg\\0,1\C,0,-0.595808,0.940839,0.6697
 28\C,0,0.781201,1.066388,0.778403\C,0,1.465696,2.179406,0.268563\C,0,0
 .715064,3.240518,-0.297328\C,0,-0.674196,3.101774,-0.402349\C,0,-1.315
 345,1.960916,0.061571\H,0,-1.097531,0.059283,1.050084\H,0,1.348058,0.2
 63298,1.237323\H,0,-1.268288,3.901209,-0.825348\H,0,-2.393473,1.885136
 ,-0.031138\B,0,3.007353,2.082249,0.214682\C,0,0.660227,5.288596,-1.636
 395\C,0,2.121642,5.143212,0.292861\C,0,1.638132,6.228122,-2.336831\C,0
 ,3.137078,6.085306,-0.339844\C,0,2.452658,7.030334,-1.325162\H,0,1.077
 781,6.893785,-2.999593\H,0,2.310717,5.630435,-2.961374\H,0,3.642042,6.
 6471,0.451133\H,0,3.895326,5.492206,-0.860896\H,0,3.190978,7.655219,-1
 .834668\H,0,1.785071,7.70669,-0.775978\N,0,1.370739,4.401611,-0.725255
 \H,0,2.621969,4.442953,0.963229\H,0,1.417702,5.725395,0.914854\H,0,-0.
 098993,5.887196,-1.100284\H,0,0.140265,4.680662,-2.379144\Cl,0,3.95910
 7,2.502904,-1.212165\Cl,0,3.91957,1.401135,1.57454\\Version=AS64L-G16R
 evC.02\HF=-1427.6861354\RMSD=7.412e-09\Dipole=-0.9619758,0.8463928,-0.
 1699643\Quadrupole=-8.2934434,12.5963843,-4.3029409,-0.2860707,0.48836
 9,-3.6796823\PG=C01 [X(C11H14B1Cl2N1)]\\@
 The archive entry for this job was punched.


 IT IS THE GODS' CUSTOM TO BRING LOW ALL THINGS OF SURPASSING GREATNESS.
     -- HERODOTUS
 IT IS THE LOFTY PINE THAT BY THE STORM IS OFTENER TOSSED;
 TOWERS FALL WITH HEAVIER CRASH WHICH HIGHER SOAR.
     -- HORACE
 THE BIGGER THEY COME, THE HARDER THEY FALL.
     -- BOB FITZSIMONS HEAVYWEIGHT CHAMPION, 1897-1899
 Job cpu time:       0 days  1 hours  9 minutes 20.9 seconds.
 Elapsed time:       0 days  0 hours  0 minutes 43.0 seconds.
 File lengths (MBytes):  RWF=    182 Int=      0 D2E=      0 Chk=     13 Scr=      1
 Normal termination of Gaussian 16 at Thu Apr 11 15:16:08 2024.
