 Entering Gaussian System, Link 0=/ccc/products/gaussian-16-C.02/system/default/g16/g16
 Input=cl_biphenylene_chelpg.gjf
 Output=cl_biphenylene_chelpg.log
 Initial command:
 /ccc/products/gaussian-16-C.02/system/default/g16/l1.exe "/ccc/scratch/cont003/gen7343/penasfra/flp/b-n_flp/cl_biphenylene/reac/Gau-2884027.inp" -scrdir="/ccc/scratch/cont003/gen7343/penasfra/flp/b-n_flp/cl_biphenylene/reac/"
 Entering Link 1 = /ccc/products/gaussian-16-C.02/system/default/g16/l1.exe PID=   2884076.
  
 Copyright (c) 1988-2021, Gaussian, Inc.  All Rights Reserved.
  
 This is part of the Gaussian(R) 16 program.  It is based on
 the Gaussian(R) 09 system (copyright 2009, Gaussian, Inc.),
 the Gaussian(R) 03 system (copyright 2003, Gaussian, Inc.),
 the Gaussian(R) 98 system (copyright 1998, Gaussian, Inc.),
 the Gaussian(R) 94 system (copyright 1995, Gaussian, Inc.),
 the Gaussian 92(TM) system (copyright 1992, Gaussian, Inc.),
 the Gaussian 90(TM) system (copyright 1990, Gaussian, Inc.),
 the Gaussian 88(TM) system (copyright 1988, Gaussian, Inc.),
 the Gaussian 86(TM) system (copyright 1986, Carnegie Mellon
 University), and the Gaussian 82(TM) system (copyright 1983,
 Carnegie Mellon University). Gaussian is a federally registered
 trademark of Gaussian, Inc.
  
 This software contains proprietary and confidential information,
 including trade secrets, belonging to Gaussian, Inc.
  
 This software is provided under written license and may be
 used, copied, transmitted, or stored only in accord with that
 written license.
  
 The following legend is applicable only to US Government
 contracts under FAR:
  
                    RESTRICTED RIGHTS LEGEND
  
 Use, reproduction and disclosure by the US Government is
 subject to restrictions as set forth in subparagraphs (a)
 and (c) of the Commercial Computer Software - Restricted
 Rights clause in FAR 52.227-19.
  
 Gaussian, Inc.
 340 Quinnipiac St., Bldg. 40, Wallingford CT 06492
  
  
 ---------------------------------------------------------------
 Warning -- This program may not be used in any manner that
 competes with the business of Gaussian, Inc. or will provide
 assistance to any competitor of Gaussian, Inc.  The licensee
 of this program is prohibited from giving any competitor of
 Gaussian, Inc. access to this program.  By using this program,
 the user acknowledges that Gaussian, Inc. is engaged in the
 business of creating and licensing software in the field of
 computational chemistry and represents and warrants to the
 licensee that it is not a competitor of Gaussian, Inc. and that
 it will not use this program in any manner prohibited above.
 ---------------------------------------------------------------
  

 Cite this work as:
 Gaussian 16, Revision C.02,
 M. J. Frisch, G. W. Trucks, H. B. Schlegel, G. E. Scuseria, 
 M. A. Robb, J. R. Cheeseman, G. Scalmani, V. Barone, 
 G. A. Petersson, H. Nakatsuji, X. Li, M. Caricato, A. V. Marenich, 
 J. Bloino, B. G. Janesko, R. Gomperts, B. Mennucci, H. P. Hratchian, 
 J. V. Ortiz, A. F. Izmaylov, J. L. Sonnenberg, D. Williams-Young, 
 F. Ding, F. Lipparini, F. Egidi, J. Goings, B. Peng, A. Petrone, 
 T. Henderson, D. Ranasinghe, V. G. Zakrzewski, J. Gao, N. Rega, 
 G. Zheng, W. Liang, M. Hada, M. Ehara, K. Toyota, R. Fukuda, 
 J. Hasegawa, M. Ishida, T. Nakajima, Y. Honda, O. Kitao, H. Nakai, 
 T. Vreven, K. Throssell, J. A. Montgomery, Jr., J. E. Peralta, 
 F. Ogliaro, M. J. Bearpark, J. J. Heyd, E. N. Brothers, K. N. Kudin, 
 V. N. Staroverov, T. A. Keith, R. Kobayashi, J. Normand, 
 K. Raghavachari, A. P. Rendell, J. C. Burant, S. S. Iyengar, 
 J. Tomasi, M. Cossi, J. M. Millam, M. Klene, C. Adamo, R. Cammi, 
 J. W. Ochterski, R. L. Martin, K. Morokuma, O. Farkas, 
 J. B. Foresman, and D. J. Fox, Gaussian, Inc., Wallingford CT, 2019.
 
 ******************************************
 Gaussian 16:  AS64L-G16RevC.02  7-Dec-2021
                11-Apr-2024 
 ******************************************
 %nprocshared=128
 Will use up to  128 processors via shared memory.
 %mem=30GB
 %chk=cl_biphenylene_chelpg.chk
 ----------------------------------------------------------------------
 # wb97xd/genecp scrf=(solvent=toluene,pcm) nosymm pop=(chelpg) scfcyc=
 300
 ----------------------------------------------------------------------
 1/38=1,172=1/1;
 2/12=2,15=1,17=6,18=5,40=1/2;
 3/5=7,11=2,16=1,17=8,25=1,30=1,70=2201,72=13,74=-58/1,2,3;
 4//1;
 5/5=2,7=300,38=5,53=13/2;
 6/7=2,8=2,9=2,10=2,15=8,20=3,28=1/1,2;
 99/5=1,9=1/99;
 ---------------------
 cl_biphenylene_chelpg
 ---------------------
 Symbolic Z-matrix:
 Charge =  0 Multiplicity = 1
 C                     1.91646   2.48607  -0.15648 
 C                     1.85187   2.54774  -1.5726 
 C                     1.57553   4.02403  -1.48984 
 C                     1.56631   3.9481   -0.07898 
 C                     1.40295   5.18702  -2.18582 
 C                     1.2667    5.03917   0.72109 
 C                     1.18374   6.32514  -1.38023 
 H                     1.42865   5.25284  -3.26591 
 C                     1.10773   6.25811  -0.00077 
 H                     1.04086   7.28966  -1.85551 
 H                     0.89335   7.16989   0.54172 
 C                     2.03785   1.45759  -2.36666 
 H                     1.99406   1.49562  -3.44856 
 C                     2.29775   0.23708  -1.68834 
 H                     2.44132  -0.66853  -2.26654 
 C                     2.39192   0.17773  -0.31688 
 C                     2.23942   1.32992   0.52368 
 H                     2.61755  -0.77587   0.1477 
 B                     2.57347   1.24889   2.02596 
 N                     1.11988   4.95448   2.09975 
 C                     0.98729   6.18239   2.85662 
 H                     0.0177    6.68142   2.7 
 H                     1.07794   5.94544   3.91824 
 H                     1.78839   6.87708   2.59963 
 C                     0.26757   3.88517   2.59575 
 H                     0.52131   3.66019   3.63375 
 H                    -0.79545   4.16534   2.54433 
 H                     0.39893   2.97754   2.0079 
 Cl                    3.36578   2.5834    2.85832 
 Cl                    2.27252  -0.22155   2.9606 
 
                          Input orientation:                          
 ---------------------------------------------------------------------
 Center     Atomic      Atomic             Coordinates (Angstroms)
 Number     Number       Type             X           Y           Z
 ---------------------------------------------------------------------
      1          6           0        1.916460    2.486067   -0.156483
      2          6           0        1.851872    2.547740   -1.572597
      3          6           0        1.575531    4.024035   -1.489844
      4          6           0        1.566310    3.948097   -0.078984
      5          6           0        1.402950    5.187022   -2.185818
      6          6           0        1.266703    5.039170    0.721087
      7          6           0        1.183738    6.325144   -1.380229
      8          1           0        1.428653    5.252845   -3.265909
      9          6           0        1.107726    6.258107   -0.000771
     10          1           0        1.040859    7.289657   -1.855507
     11          1           0        0.893348    7.169888    0.541719
     12          6           0        2.037855    1.457592   -2.366660
     13          1           0        1.994063    1.495615   -3.448562
     14          6           0        2.297746    0.237080   -1.688343
     15          1           0        2.441321   -0.668527   -2.266540
     16          6           0        2.391920    0.177729   -0.316877
     17          6           0        2.239420    1.329921    0.523677
     18          1           0        2.617547   -0.775871    0.147699
     19          5           0        2.573470    1.248885    2.025960
     20          7           0        1.119881    4.954483    2.099748
     21          6           0        0.987290    6.182386    2.856621
     22          1           0        0.017703    6.681416    2.699997
     23          1           0        1.077938    5.945436    3.918236
     24          1           0        1.788391    6.877084    2.599627
     25          6           0        0.267568    3.885167    2.595753
     26          1           0        0.521308    3.660186    3.633752
     27          1           0       -0.795453    4.165341    2.544331
     28          1           0        0.398930    2.977539    2.007903
     29         17           0        3.365783    2.583399    2.858323
     30         17           0        2.272522   -0.221546    2.960603
 ---------------------------------------------------------------------
                    Distance matrix (angstroms):
                    1          2          3          4          5
     1  C    0.000000
     2  C    1.418927   0.000000
     3  C    2.063839   1.504214   0.000000
     4  C    1.505371   2.067226   1.412932   0.000000
     5  C    3.417170   2.746522   1.366273   2.449566   0.000000
     6  C    2.776805   3.436660   2.452364   1.385755   2.913850
     7  C    4.095479   3.840858   2.336797   2.736778   1.411506
     8  H    4.190650   3.219319   2.164706   3.446420   1.082400
     9  C    3.860904   4.097708   2.725300   2.356388   2.451288
    10  H    5.169897   4.819083   3.329245   3.820753   2.159002
    11  H    4.844835   5.172364   3.806444   3.349341   3.410412
    12  C    2.440774   1.361451   2.751214   3.414445   3.787408
    13  H    3.438721   2.155558   3.225624   4.189474   3.945937
    14  C    2.747711   2.356130   3.860314   4.110557   5.054707
    15  H    3.831355   3.342661   4.834562   5.183075   5.947452
    16  C    2.362247   2.735953   4.103220   3.867027   5.437280
    17  C    1.379708   2.455126   3.428304   2.769679   4.787303
    18  H    3.350267   3.819956   5.177494   4.844828   6.517411
    19  B    2.593326   3.893243   4.588923   3.568040   5.883716
    20  N    3.437760   4.451330   3.736110   2.441103   4.301195
    21  C    4.858490   5.794491   4.888381   3.734312   5.156521
    22  H    5.419014   6.221456   5.200314   4.194276   5.293705
    23  H    5.410516   6.503273   5.760791   4.495068   6.159570
    24  H    5.185901   6.012878   4.990889   3.975329   5.089731
    25  C    3.500161   4.655521   4.292104   2.974039   5.084028
    26  H    4.206053   5.487623   5.243568   3.867729   6.080782
    27  H    4.179573   5.155003   4.681463   3.536510   5.315178
    28  H    2.688682   3.887898   3.835854   2.580670   4.845324
    29  Cl   3.346501   4.682547   4.918027   3.705169   6.006240
    30  Cl   4.144173   5.328770   6.190092   5.208046   7.516276
                    6          7          8          9         10
     6  C    0.000000
     7  C    2.464983   0.000000
     8  H    3.996001   2.183025   0.000000
     9  C    1.425539   1.383176   3.431424   0.000000
    10  H    3.428489   1.084707   2.507633   2.123349   0.000000
    11  H    2.170605   2.119387   4.296468   1.082404   2.404745
    12  C    4.791300   5.039407   3.947622   5.432082   5.938709
    13  H    5.520127   5.315917   3.803923   5.945939   6.084188
    14  C    5.470692   6.196811   5.329347   6.365282   7.165651
    15  H    6.548545   7.160901   6.089900   7.408808   8.090917
    16  C    5.096773   6.354615   5.948233   6.222546   7.400829
    17  C    3.839750   5.448998   5.514312   5.083581   6.528056
    18  H    5.997354   7.403701   7.029339   7.195724   8.458813
    19  B    4.216230   6.269121   6.733957   5.598960   7.342044
    20  N    1.389041   3.740726   5.382809   2.472198   4.593835
    21  C    2.438344   4.243804   6.208399   2.860931   4.840772
    22  H    2.858856   4.258499   6.294730   2.943041   4.708442
    23  H    3.328470   5.313107   7.225969   3.931573   5.928272
    24  H    2.679365   4.063188   6.096891   2.758352   4.536214
    25  C    2.417512   4.754081   6.130069   3.616441   5.657053
    26  H    3.307692   5.716714   7.138989   4.505867   6.601133
    27  H    2.887955   4.897358   6.315711   3.805168   5.700173
    28  H    2.580552   4.827196   5.835275   3.911431   5.825150
    29  Cl   3.873593   6.060305   6.955906   5.174623   7.055092
    30  Cl   5.805363   7.930159   8.333698   7.218891   9.007224
                   11         12         13         14         15
    11  H    0.000000
    12  C    6.511443   0.000000
    13  H    7.023624   1.083455   0.000000
    14  C    7.416828   1.420319   2.185064   0.000000
    15  H    8.468960   2.166377   2.506138   1.083997   0.000000
    16  C    7.202305   2.442339   3.420901   1.375976   2.125976
    17  C    5.993117   2.900168   3.983257   2.467942   3.438004
    18  H    8.140221   3.412682   4.299009   2.121177   2.423041
    19  B    6.331197   4.430074   5.510624   3.859510   4.703136
    20  N    2.717865   5.746279   6.596340   6.163675   7.240781
    21  C    2.518483   7.121097   7.920527   7.597411   8.677326
    22  H    2.379816   7.552507   8.282711   8.123152   9.195764
    23  H    3.596418   7.782166   8.655051   8.093639   9.157225
    24  H    2.263144   7.355075   8.098339   7.920592   9.002341
    25  C    3.924290   5.801084   6.724915   5.981943   7.007369
    26  H    4.692237   6.569344   7.550732   6.572525   7.565557
    27  H    3.986202   6.283102   7.129067   6.550927   7.549004
    28  H    4.468773   4.912547   5.874824   4.977736   5.977961
    29  Cl   5.702234   5.507384   6.545356   5.226671   6.139534
    30  Cl   7.898507   5.590555   6.641052   4.671581   5.248934
                   16         17         18         19         20
    16  C    0.000000
    17  C    1.434341   0.000000
    18  H    1.084477   2.172257   0.000000
    19  B    2.582483   1.541107   2.762145   0.000000
    20  N    5.502321   4.107897   6.236221   3.981184   0.000000
    21  C    6.935415   5.527827   7.642862   5.248371   1.448511
    22  H    7.552243   6.189579   8.299671   6.041412   2.134805
    23  H    7.275244   5.845943   7.858964   5.279670   2.071387
    24  H    7.331548   5.940035   8.078810   5.711573   2.095991
    25  C    5.171207   3.835490   5.765470   3.548497   1.454612
    26  H    5.588753   4.249072   6.018753   3.551160   2.094436
    27  H    5.852086   4.618777   6.465910   4.485986   2.118703
    28  H    4.149162   2.881835   4.740328   2.777984   2.106303
    29  Cl   4.100921   2.879318   4.380871   1.761112   3.352842
    30  Cl   3.303869   2.889075   2.887689   1.768133   5.372237
                   21         22         23         24         25
    21  C    0.000000
    22  H    1.101663   0.000000
    23  H    1.091508   1.774788   0.000000
    24  H    1.091061   1.784291   1.763928   0.000000
    25  C    2.421418   2.809325   2.578831   3.356261   0.000000
    26  H    2.680031   3.202085   2.369206   3.608787   1.091990
    27  H    2.710013   2.648790   2.926764   3.746046   1.100525
    28  H    3.367125   3.787220   3.594278   4.181769   1.089317
    29  Cl   4.313924   5.294190   4.202492   4.581574   3.370828
    30  Cl   6.532456   7.266568   6.354192   7.124271   4.584544
                   26         27         28         29         30
    26  H    0.000000
    27  H    1.782100   0.000000
    28  H    1.767588   1.767818   0.000000
    29  Cl   3.138757   4.462848   3.111395   0.000000
    30  Cl   4.311348   5.369407   3.827810   3.012208   0.000000
 Symmetry turned off by external request.
 Stoichiometry    C14H12BCl2N
 Framework group  C1[X(C14H12BCl2N)]
 Deg. of freedom    84
 Full point group                 C1      NOp   1
 Rotational constants (GHZ):           0.4679722           0.3149201           0.2039384
 General basis read from cards:  (5D, 7F)
 ======================================================================================================
                                       Pseudopotential Parameters
 ======================================================================================================
  Center     Atomic      Valence      Angular      Power
  Number     Number     Electrons     Momentum     of R      Exponent        Coefficient   SO-Coeffient
 ======================================================================================================
    1          6
                                   No pseudopotential on this center.
    2          6
                                   No pseudopotential on this center.
    3          6
                                   No pseudopotential on this center.
    4          6
                                   No pseudopotential on this center.
    5          6
                                   No pseudopotential on this center.
    6          6
                                   No pseudopotential on this center.
    7          6
                                   No pseudopotential on this center.
    8          1
                                   No pseudopotential on this center.
    9          6
                                   No pseudopotential on this center.
   10          1
                                   No pseudopotential on this center.
   11          1
                                   No pseudopotential on this center.
   12          6
                                   No pseudopotential on this center.
   13          1
                                   No pseudopotential on this center.
   14          6
                                   No pseudopotential on this center.
   15          1
                                   No pseudopotential on this center.
   16          6
                                   No pseudopotential on this center.
   17          6
                                   No pseudopotential on this center.
   18          1
                                   No pseudopotential on this center.
   19          5
                                   No pseudopotential on this center.
   20          7
                                   No pseudopotential on this center.
   21          6
                                   No pseudopotential on this center.
   22          1
                                   No pseudopotential on this center.
   23          1
                                   No pseudopotential on this center.
   24          1
                                   No pseudopotential on this center.
   25          6
                                   No pseudopotential on this center.
   26          1
                                   No pseudopotential on this center.
   27          1
                                   No pseudopotential on this center.
   28          1
                                   No pseudopotential on this center.
   29         17
                                   No pseudopotential on this center.
   30         17
                                   No pseudopotential on this center.
 ======================================================================================================
   496 basis functions,   790 primitive gaussians,   514 cartesian basis functions
    71 alpha electrons       71 beta electrons
       nuclear repulsion energy      1464.0332348727 Hartrees.
 NAtoms=   30 NActive=   30 NUniq=   30 SFac= 1.00D+00 NAtFMM=   60 NAOKFM=F Big=F
 Integral buffers will be    131072 words long.
 Raffenetti 2 integral format.
 Two-electron integral symmetry is turned off.
 Nuclear repulsion after empirical dispersion term =     1464.0091096557 Hartrees.
 ------------------------------------------------------------------------------
 Polarizable Continuum Model (PCM)
 =================================
 Model                : PCM.
 Atomic radii         : UFF (Universal Force Field).
 Polarization charges : Total charges.
 Charge compensation  : None.
 Solution method      : On-the-fly selection.
 Cavity type          : Scaled VdW (van der Waals Surface) (Alpha=1.100).
 Cavity algorithm     : GePol (No added spheres)
                        Default sphere list used, NSphG=   30.
                        Lebedev-Laikov grids with approx.  5.0 points / Ang**2.
                        Smoothing algorithm: York/Karplus (Gamma=1.0000).
                        Polarization charges: spherical gaussians, with
                                              point-specific exponents (IZeta= 3).
                        Self-potential: point-specific (ISelfS= 7).
                        Self-field    : sphere-specific E.n sum rule (ISelfD= 2).
 Solvent              : Toluene, Eps=   2.374100 Eps(inf)=   2.238315
 ------------------------------------------------------------------------------
 One-electron integrals computed using PRISM.
   1 Symmetry operations used in ECPInt.
 ECPInt:  NShTT=   16653 NPrTT=   59035 LenC2=   15211 LenP2D=   37183.
 LDataN:  DoStor=T MaxTD1= 4 Len=   56
 Number of processors reduced to  92 by ecpmxn.
 NBasis=   496 RedAO= T EigKep=  1.07D-06  NBF=   496
 NBsUse=   490 1.00D-06 EigRej=  7.55D-07 NBFU=   490
 ExpMin= 3.15D-02 ExpMax= 1.06D+05 ExpMxC= 3.62D+03 IAcc=3 IRadAn=         5 AccDes= 0.00D+00
 Harris functional with IExCor= 4639 and IRadAn=       5 diagonalized for initial guess.
 HarFok:  IExCor= 4639 AccDes= 0.00D+00 IRadAn=         5 IDoV= 1 UseB2=F ITyADJ=14
 ICtDFT=  3500011 ScaDFX=  1.000000  1.000000  1.000000  1.000000
 FoFCou: FMM=F IPFlag=           0 FMFlag=      100000 FMFlg1=           0
         NFxFlg=           0 DoJE=T BraDBF=F KetDBF=T FulRan=T
         wScrn=  0.000000 ICntrl=       500 IOpCl=  0 I1Cent=   200000004 NGrid=           0
         NMat0=    1 NMatS0=      1 NMatT0=    0 NMatD0=    1 NMtDS0=    0 NMtDT0=    0
 Symmetry not used in FoFCou.
 Requested convergence on RMS density matrix=1.00D-08 within 300 cycles.
 Requested convergence on MAX density matrix=1.00D-06.
 Requested convergence on             energy=1.00D-06.
 No special actions if energy rises.
 Inv3:  Mode=1 IEnd=    16652208.
 Iteration    1 A*A^-1 deviation from unit magnitude is 4.44D-15 for   2337.
 Iteration    1 A*A^-1 deviation from orthogonality  is 2.35D-15 for   2344   1975.
 Iteration    1 A^-1*A deviation from unit magnitude is 4.44D-15 for   2337.
 Iteration    1 A^-1*A deviation from orthogonality  is 1.98D-15 for   2354   2353.
 Error on total polarization charges =  0.01207
 SCF Done:  E(RwB97XD) =  -1540.70165775     A.U. after   18 cycles
            NFock= 18  Conv=0.49D-08     -V/T= 2.0030

 **********************************************************************

            Population analysis using the SCF Density.

 **********************************************************************

 Alpha  occ. eigenvalues -- -101.72535-101.72289 -14.45362 -10.34200 -10.32285
 Alpha  occ. eigenvalues --  -10.31262 -10.31176 -10.31005 -10.30969 -10.30433
 Alpha  occ. eigenvalues --  -10.30255 -10.30249 -10.30041 -10.29759 -10.29643
 Alpha  occ. eigenvalues --  -10.29409 -10.29266  -9.59581  -9.59358  -7.34232
 Alpha  occ. eigenvalues --   -7.34011  -7.33718  -7.33538  -7.33494  -7.33303
 Alpha  occ. eigenvalues --   -6.95494  -1.06085  -1.01760  -0.96701  -0.95177
 Alpha  occ. eigenvalues --   -0.92715  -0.91019  -0.86930  -0.85488  -0.82671
 Alpha  occ. eigenvalues --   -0.80961  -0.77290  -0.73345  -0.72179  -0.67548
 Alpha  occ. eigenvalues --   -0.66419  -0.63419  -0.59427  -0.58868  -0.58145
 Alpha  occ. eigenvalues --   -0.56746  -0.56284  -0.55230  -0.54282  -0.52678
 Alpha  occ. eigenvalues --   -0.51754  -0.51472  -0.50040  -0.49439  -0.48933
 Alpha  occ. eigenvalues --   -0.48368  -0.47378  -0.46250  -0.45954  -0.44824
 Alpha  occ. eigenvalues --   -0.43922  -0.43371  -0.42357  -0.41272  -0.40078
 Alpha  occ. eigenvalues --   -0.39871  -0.38370  -0.37587  -0.34806  -0.29398
 Alpha  occ. eigenvalues --   -0.27441
 Alpha virt. eigenvalues --   -0.01609   0.00553   0.03813   0.04461   0.04791
 Alpha virt. eigenvalues --    0.04893   0.05982   0.06140   0.06305   0.07415
 Alpha virt. eigenvalues --    0.07841   0.08059   0.08160   0.08709   0.09602
 Alpha virt. eigenvalues --    0.09920   0.10155   0.10245   0.10686   0.11097
 Alpha virt. eigenvalues --    0.12484   0.12763   0.12994   0.13679   0.14086
 Alpha virt. eigenvalues --    0.14582   0.15024   0.15128   0.15659   0.15693
 Alpha virt. eigenvalues --    0.16063   0.16287   0.16700   0.16822   0.16990
 Alpha virt. eigenvalues --    0.17574   0.17787   0.18295   0.18557   0.18708
 Alpha virt. eigenvalues --    0.19205   0.19291   0.19783   0.20006   0.20324
 Alpha virt. eigenvalues --    0.20548   0.20681   0.21040   0.21323   0.21506
 Alpha virt. eigenvalues --    0.21869   0.22055   0.22163   0.22654   0.23245
 Alpha virt. eigenvalues --    0.23540   0.23631   0.24058   0.24489   0.24592
 Alpha virt. eigenvalues --    0.24808   0.24978   0.25369   0.25769   0.26011
 Alpha virt. eigenvalues --    0.26274   0.26633   0.26967   0.27867   0.28207
 Alpha virt. eigenvalues --    0.28284   0.29178   0.29570   0.29878   0.30146
 Alpha virt. eigenvalues --    0.30274   0.30534   0.31135   0.31313   0.31866
 Alpha virt. eigenvalues --    0.32461   0.32848   0.33138   0.33719   0.34290
 Alpha virt. eigenvalues --    0.34542   0.34763   0.35032   0.35484   0.36077
 Alpha virt. eigenvalues --    0.36577   0.37046   0.37669   0.38060   0.38233
 Alpha virt. eigenvalues --    0.38945   0.39157   0.39413   0.39749   0.40438
 Alpha virt. eigenvalues --    0.40659   0.41108   0.42286   0.42615   0.43094
 Alpha virt. eigenvalues --    0.43841   0.44329   0.45263   0.45776   0.46513
 Alpha virt. eigenvalues --    0.48831   0.49832   0.51630   0.52898   0.53518
 Alpha virt. eigenvalues --    0.54171   0.54502   0.56626   0.56926   0.58685
 Alpha virt. eigenvalues --    0.59112   0.59366   0.60210   0.60690   0.61259
 Alpha virt. eigenvalues --    0.61980   0.62452   0.63607   0.63764   0.64060
 Alpha virt. eigenvalues --    0.64603   0.65141   0.65686   0.66518   0.67000
 Alpha virt. eigenvalues --    0.67893   0.68730   0.68944   0.69147   0.69684
 Alpha virt. eigenvalues --    0.70387   0.70792   0.71633   0.71757   0.72398
 Alpha virt. eigenvalues --    0.73854   0.74764   0.74889   0.74978   0.75881
 Alpha virt. eigenvalues --    0.76239   0.77387   0.78153   0.78416   0.79225
 Alpha virt. eigenvalues --    0.80538   0.81416   0.81708   0.82255   0.82705
 Alpha virt. eigenvalues --    0.83611   0.84038   0.84872   0.85267   0.85950
 Alpha virt. eigenvalues --    0.87140   0.87371   0.88322   0.88515   0.89504
 Alpha virt. eigenvalues --    0.91885   0.92742   0.93766   0.94333   0.95072
 Alpha virt. eigenvalues --    0.95330   0.96116   0.96475   0.97304   0.97897
 Alpha virt. eigenvalues --    0.98346   0.99109   0.99274   0.99552   1.00769
 Alpha virt. eigenvalues --    1.00919   1.01275   1.01598   1.02981   1.04186
 Alpha virt. eigenvalues --    1.04711   1.04926   1.05782   1.06669   1.07637
 Alpha virt. eigenvalues --    1.08642   1.09075   1.10798   1.11656   1.12603
 Alpha virt. eigenvalues --    1.13410   1.14083   1.15006   1.15445   1.16597
 Alpha virt. eigenvalues --    1.18371   1.18847   1.19517   1.20401   1.21937
 Alpha virt. eigenvalues --    1.22097   1.23320   1.23821   1.27872   1.29089
 Alpha virt. eigenvalues --    1.30393   1.34354   1.34757   1.38674   1.40290
 Alpha virt. eigenvalues --    1.41643   1.42588   1.45011   1.47863   1.49888
 Alpha virt. eigenvalues --    1.51116   1.51728   1.52979   1.53533   1.55428
 Alpha virt. eigenvalues --    1.55735   1.57233   1.58139   1.60361   1.60543
 Alpha virt. eigenvalues --    1.61028   1.62827   1.63388   1.63902   1.64955
 Alpha virt. eigenvalues --    1.65873   1.67120   1.67753   1.68348   1.69484
 Alpha virt. eigenvalues --    1.70757   1.71538   1.72392   1.74689   1.75779
 Alpha virt. eigenvalues --    1.76862   1.77241   1.78474   1.79338   1.80687
 Alpha virt. eigenvalues --    1.81494   1.82753   1.83365   1.84436   1.85231
 Alpha virt. eigenvalues --    1.89372   1.89851   1.90501   1.92429   1.93985
 Alpha virt. eigenvalues --    1.94650   1.95516   1.96279   1.97048   1.98036
 Alpha virt. eigenvalues --    1.98992   1.99589   2.01154   2.03111   2.04293
 Alpha virt. eigenvalues --    2.05031   2.06111   2.06767   2.07314   2.08568
 Alpha virt. eigenvalues --    2.10037   2.10917   2.14576   2.15908   2.16876
 Alpha virt. eigenvalues --    2.17284   2.19178   2.21252   2.22602   2.23849
 Alpha virt. eigenvalues --    2.26485   2.27945   2.29606   2.30501   2.34721
 Alpha virt. eigenvalues --    2.36314   2.37527   2.38883   2.41135   2.42796
 Alpha virt. eigenvalues --    2.43612   2.44077   2.44829   2.46139   2.49963
 Alpha virt. eigenvalues --    2.51555   2.52270   2.54406   2.54546   2.55297
 Alpha virt. eigenvalues --    2.57677   2.58164   2.58838   2.59726   2.61529
 Alpha virt. eigenvalues --    2.64231   2.65969   2.66593   2.66788   2.68846
 Alpha virt. eigenvalues --    2.69435   2.71763   2.72763   2.75103   2.76438
 Alpha virt. eigenvalues --    2.77163   2.78517   2.79137   2.80282   2.81029
 Alpha virt. eigenvalues --    2.81575   2.82962   2.84030   2.84454   2.86296
 Alpha virt. eigenvalues --    2.86856   2.87097   2.88096   2.89690   2.90666
 Alpha virt. eigenvalues --    2.92732   2.93175   2.94737   2.95251   2.97472
 Alpha virt. eigenvalues --    2.99402   3.00551   3.02042   3.04363   3.06504
 Alpha virt. eigenvalues --    3.09370   3.10794   3.13758   3.17494   3.18790
 Alpha virt. eigenvalues --    3.19304   3.22115   3.27447   3.28057   3.30801
 Alpha virt. eigenvalues --    3.32115   3.35923   3.43792   3.46564   3.51081
 Alpha virt. eigenvalues --    3.51850   3.60033   3.61995   3.63919   3.65615
 Alpha virt. eigenvalues --    3.67560   3.68836   3.75730   3.78975   3.83336
 Alpha virt. eigenvalues --    3.86629   3.89142   3.91190   3.93851   3.94887
 Alpha virt. eigenvalues --    4.07358   4.11070   4.13554   4.15546   4.23007
 Alpha virt. eigenvalues --    4.27086   4.38883   4.45354   4.52629   4.87365
 Alpha virt. eigenvalues --    4.96917   4.99828   5.16405   9.91003  10.01811
 Alpha virt. eigenvalues --   14.57914  23.63207  23.80302  24.02085  24.04153
 Alpha virt. eigenvalues --   24.05468  24.07784  24.08935  24.10458  24.17854
 Alpha virt. eigenvalues --   24.23512  24.27628  24.29894  24.30733  24.48172
 Alpha virt. eigenvalues --   26.11026  26.15229  26.17971  26.40085  26.52975
 Alpha virt. eigenvalues --   26.71558  35.76088 215.99876 216.11739
          Condensed to atoms (all electrons):
               1          2          3          4          5          6
     1  C   20.677590   4.614984  -4.004445   1.494542  -2.683973   0.021022
     2  C    4.614984  23.438655  -3.519388 -10.169952   0.382458   0.074273
     3  C   -4.004445  -3.519388  16.076722   0.264471  -4.176996  -1.236158
     4  C    1.494542 -10.169952   0.264471  17.257558  -2.524749   0.289360
     5  C   -2.683973   0.382458  -4.176996  -2.524749  12.495660   0.617549
     6  C    0.021022   0.074273  -1.236158   0.289360   0.617549   9.393056
     7  C   -0.683900  -0.007118  -1.555854  -0.063150   1.876820  -1.502520
     8  H   -0.005304   0.050614  -0.040634  -0.024094   0.397030   0.005849
     9  C   -0.901415  -1.211782   1.812465   0.713157  -3.036881  -1.471610
    10  H   -0.016372   0.005753  -0.011159  -0.016582  -0.052185   0.012074
    11  H   -0.006356  -0.023451   0.047968   0.035720  -0.059937  -0.040120
    12  C   -5.876184  -3.751978   2.244400  -2.242421   2.321628   0.093951
    13  H   -0.045223  -0.059120   0.006146  -0.065046   0.037309   0.000516
    14  C    2.418196   0.579115  -0.985393  -1.199558   0.056918   0.115903
    15  H    0.083723   0.006799  -0.036073  -0.021261   0.001333   0.002927
    16  C   -7.140935  -0.544939   1.168622   1.243054  -0.110234  -0.233207
    17  C   -2.341847  -4.392989   0.242923   1.417368   0.638158   0.018340
    18  H   -0.150210   0.083863   0.019630  -0.014047   0.004238  -0.017357
    19  B    0.579010  -0.157549  -0.061995   0.271612  -0.062648   0.154627
    20  N    0.083898  -0.022327  -0.128287  -0.104020   0.126701  -0.104280
    21  C    0.113899   0.136833   0.042255  -0.042688  -0.001324  -0.004715
    22  H    0.003513   0.004380   0.004484   0.000657   0.005376  -0.012692
    23  H   -0.003734   0.000376   0.001060  -0.015904  -0.005179  -0.008097
    24  H   -0.003630   0.004991  -0.007653   0.013968   0.007583  -0.007809
    25  C    0.059517   0.134597   0.048898  -0.184447   0.065978  -0.139777
    26  H   -0.015688  -0.005236  -0.018801  -0.005387   0.008357   0.005986
    27  H    0.033933   0.032526   0.033061  -0.004171   0.001846  -0.025893
    28  H   -0.200565  -0.158766  -0.074654   0.153053  -0.021247   0.038870
    29  Cl  -0.045707  -0.044687  -0.096756   0.109855   0.004575  -0.021859
    30  Cl  -0.325794   0.027545   0.026985  -0.034387   0.006263  -0.009182
               7          8          9         10         11         12
     1  C   -0.683900  -0.005304  -0.901415  -0.016372  -0.006356  -5.876184
     2  C   -0.007118   0.050614  -1.211782   0.005753  -0.023451  -3.751978
     3  C   -1.555854  -0.040634   1.812465  -0.011159   0.047968   2.244400
     4  C   -0.063150  -0.024094   0.713157  -0.016582   0.035720  -2.242421
     5  C    1.876820   0.397030  -3.036881  -0.052185  -0.059937   2.321628
     6  C   -1.502520   0.005849  -1.471610   0.012074  -0.040120   0.093951
     7  C    8.510289  -0.017311  -0.462059   0.444218  -0.147746   0.071608
     8  H   -0.017311   0.449370  -0.006730  -0.010934   0.002224   0.000948
     9  C   -0.462059  -0.006730  11.365539  -0.046320   0.559269  -0.056163
    10  H    0.444218  -0.010934  -0.046320   0.455297  -0.012057   0.005288
    11  H   -0.147746   0.002224   0.559269  -0.012057   0.488514   0.003994
    12  C    0.071608   0.000948  -0.056163   0.005288   0.003994  12.340497
    13  H    0.004864  -0.000217  -0.003706   0.000327  -0.000159   0.477723
    14  C    0.050293   0.000989  -0.008699  -0.000513  -0.000115   0.866790
    15  H    0.000756   0.000319  -0.000823  -0.000050   0.000022  -0.017451
    16  C   -0.010334   0.000124   0.044135   0.001546  -0.001361  -2.220647
    17  C    0.286822  -0.001983  -0.038020   0.007460  -0.008121   1.985182
    18  H   -0.001796   0.000037  -0.002914   0.000024   0.000006  -0.043903
    19  B    0.018649   0.001362   0.092936  -0.000387  -0.000169   0.062249
    20  N    0.002202   0.001294  -0.551803  -0.001760  -0.038353   0.006793
    21  C   -0.384311   0.000059  -0.307013  -0.003437   0.021240   0.020419
    22  H    0.009639   0.000001  -0.013694   0.000440  -0.006335  -0.000891
    23  H   -0.012546  -0.000083   0.049727  -0.000064   0.006281   0.001208
    24  H    0.006919  -0.000076  -0.019209   0.000656  -0.012305   0.000688
    25  C   -0.077113   0.000930  -0.139933   0.000185  -0.006722   0.061854
    26  H   -0.005737   0.000225  -0.025484  -0.000252  -0.001438  -0.001261
    27  H   -0.021026  -0.000008  -0.043159  -0.000382   0.002477   0.006252
    28  H    0.028478  -0.001034   0.034066   0.000860  -0.000780  -0.080462
    29  Cl  -0.026826   0.000251  -0.068181  -0.000301   0.000882  -0.007431
    30  Cl  -0.001063   0.000028  -0.008077   0.000009   0.000043  -0.002055
              13         14         15         16         17         18
     1  C   -0.045223   2.418196   0.083723  -7.140935  -2.341847  -0.150210
     2  C   -0.059120   0.579115   0.006799  -0.544939  -4.392989   0.083863
     3  C    0.006146  -0.985393  -0.036073   1.168622   0.242923   0.019630
     4  C   -0.065046  -1.199558  -0.021261   1.243054   1.417368  -0.014047
     5  C    0.037309   0.056918   0.001333  -0.110234   0.638158   0.004238
     6  C    0.000516   0.115903   0.002927  -0.233207   0.018340  -0.017357
     7  C    0.004864   0.050293   0.000756  -0.010334   0.286822  -0.001796
     8  H   -0.000217   0.000989   0.000319   0.000124  -0.001983   0.000037
     9  C   -0.003706  -0.008699  -0.000823   0.044135  -0.038020  -0.002914
    10  H    0.000327  -0.000513  -0.000050   0.001546   0.007460   0.000024
    11  H   -0.000159  -0.000115   0.000022  -0.001361  -0.008121   0.000006
    12  C    0.477723   0.866790  -0.017451  -2.220647   1.985182  -0.043903
    13  H    0.438295   0.002131  -0.004438  -0.010684   0.004663   0.002600
    14  C    0.002131   8.120181   0.449744  -2.455266  -1.190267  -0.033863
    15  H   -0.004438   0.449744   0.452211  -0.169434   0.040370  -0.022033
    16  C   -0.010684  -2.455266  -0.169434  18.638327  -2.422552   0.785243
    17  C    0.004663  -1.190267   0.040370  -2.422552  11.906528  -0.303675
    18  H    0.002600  -0.033863  -0.022033   0.785243  -0.303675   0.529798
    19  B   -0.006832  -0.064061   0.000723  -1.029163   0.000453  -0.117618
    20  N    0.000300  -0.022230  -0.000235   0.068692   0.067398   0.001968
    21  C    0.000054   0.002224   0.000030  -0.032908  -0.114845   0.000186
    22  H    0.000018   0.000228   0.000000   0.001861   0.003493   0.000052
    23  H    0.000009  -0.000459  -0.000016   0.000359  -0.001941   0.000135
    24  H   -0.000010  -0.000076   0.000003  -0.001961  -0.001473  -0.000089
    25  C    0.000060  -0.015023  -0.000352  -0.125692  -0.180238  -0.001070
    26  H   -0.000024  -0.003019  -0.000122   0.023787   0.010650   0.001169
    27  H    0.000010   0.001774   0.000031  -0.019928  -0.031795  -0.000548
    28  H    0.000460  -0.021936  -0.001788   0.369999   0.271209   0.015167
    29  Cl  -0.000659  -0.062633  -0.001941  -0.017592  -0.102498   0.005451
    30  Cl  -0.000375  -0.152222  -0.006343   0.535031  -0.315325   0.048206
              19         20         21         22         23         24
     1  C    0.579010   0.083898   0.113899   0.003513  -0.003734  -0.003630
     2  C   -0.157549  -0.022327   0.136833   0.004380   0.000376   0.004991
     3  C   -0.061995  -0.128287   0.042255   0.004484   0.001060  -0.007653
     4  C    0.271612  -0.104020  -0.042688   0.000657  -0.015904   0.013968
     5  C   -0.062648   0.126701  -0.001324   0.005376  -0.005179   0.007583
     6  C    0.154627  -0.104280  -0.004715  -0.012692  -0.008097  -0.007809
     7  C    0.018649   0.002202  -0.384311   0.009639  -0.012546   0.006919
     8  H    0.001362   0.001294   0.000059   0.000001  -0.000083  -0.000076
     9  C    0.092936  -0.551803  -0.307013  -0.013694   0.049727  -0.019209
    10  H   -0.000387  -0.001760  -0.003437   0.000440  -0.000064   0.000656
    11  H   -0.000169  -0.038353   0.021240  -0.006335   0.006281  -0.012305
    12  C    0.062249   0.006793   0.020419  -0.000891   0.001208   0.000688
    13  H   -0.006832   0.000300   0.000054   0.000018   0.000009  -0.000010
    14  C   -0.064061  -0.022230   0.002224   0.000228  -0.000459  -0.000076
    15  H    0.000723  -0.000235   0.000030   0.000000  -0.000016   0.000003
    16  C   -1.029163   0.068692  -0.032908   0.001861   0.000359  -0.001961
    17  C    0.000453   0.067398  -0.114845   0.003493  -0.001941  -0.001473
    18  H   -0.117618   0.001968   0.000186   0.000052   0.000135  -0.000089
    19  B    5.484836  -0.033332   0.005118  -0.001395  -0.009925   0.002816
    20  N   -0.033332   7.208556   0.321735  -0.063449  -0.054635  -0.039646
    21  C    0.005118   0.321735   5.507700   0.404812   0.408172   0.415019
    22  H   -0.001395  -0.063449   0.404812   0.576875  -0.042531  -0.049332
    23  H   -0.009925  -0.054635   0.408172  -0.042531   0.505905  -0.014837
    24  H    0.002816  -0.039646   0.415019  -0.049332  -0.014837   0.534925
    25  C    0.093631   0.272740  -0.125365  -0.004445   0.000318   0.009664
    26  H   -0.034523  -0.052040   0.001536   0.003037   0.003515  -0.001937
    27  H    0.015069  -0.086069   0.017180   0.010674  -0.004596   0.000388
    28  H   -0.303176  -0.048962  -0.052417   0.000831   0.008956  -0.006765
    29  Cl   0.318800  -0.053346   0.053646  -0.001177   0.009412   0.001044
    30  Cl   0.359639   0.002455   0.000640  -0.000070  -0.000036   0.000122
              25         26         27         28         29         30
     1  C    0.059517  -0.015688   0.033933  -0.200565  -0.045707  -0.325794
     2  C    0.134597  -0.005236   0.032526  -0.158766  -0.044687   0.027545
     3  C    0.048898  -0.018801   0.033061  -0.074654  -0.096756   0.026985
     4  C   -0.184447  -0.005387  -0.004171   0.153053   0.109855  -0.034387
     5  C    0.065978   0.008357   0.001846  -0.021247   0.004575   0.006263
     6  C   -0.139777   0.005986  -0.025893   0.038870  -0.021859  -0.009182
     7  C   -0.077113  -0.005737  -0.021026   0.028478  -0.026826  -0.001063
     8  H    0.000930   0.000225  -0.000008  -0.001034   0.000251   0.000028
     9  C   -0.139933  -0.025484  -0.043159   0.034066  -0.068181  -0.008077
    10  H    0.000185  -0.000252  -0.000382   0.000860  -0.000301   0.000009
    11  H   -0.006722  -0.001438   0.002477  -0.000780   0.000882   0.000043
    12  C    0.061854  -0.001261   0.006252  -0.080462  -0.007431  -0.002055
    13  H    0.000060  -0.000024   0.000010   0.000460  -0.000659  -0.000375
    14  C   -0.015023  -0.003019   0.001774  -0.021936  -0.062633  -0.152222
    15  H   -0.000352  -0.000122   0.000031  -0.001788  -0.001941  -0.006343
    16  C   -0.125692   0.023787  -0.019928   0.369999  -0.017592   0.535031
    17  C   -0.180238   0.010650  -0.031795   0.271209  -0.102498  -0.315325
    18  H   -0.001070   0.001169  -0.000548   0.015167   0.005451   0.048206
    19  B    0.093631  -0.034523   0.015069  -0.303176   0.318800   0.359639
    20  N    0.272740  -0.052040  -0.086069  -0.048962  -0.053346   0.002455
    21  C   -0.125365   0.001536   0.017180  -0.052417   0.053646   0.000640
    22  H   -0.004445   0.003037   0.010674   0.000831  -0.001177  -0.000070
    23  H    0.000318   0.003515  -0.004596   0.008956   0.009412  -0.000036
    24  H    0.009664  -0.001937   0.000388  -0.006765   0.001044   0.000122
    25  C    5.606798   0.416473   0.465110   0.177911   0.082598   0.022404
    26  H    0.416473   0.547107  -0.042710  -0.041225   0.031197   0.002795
    27  H    0.465110  -0.042710   0.559327  -0.088786   0.003132   0.001466
    28  H    0.177911  -0.041225  -0.088786   0.953793  -0.057212  -0.027323
    29  Cl   0.082598   0.031197   0.003132  -0.057212  16.996319  -0.094274
    30  Cl   0.022404   0.002795   0.001466  -0.027323  -0.094274  16.830221
 Mulliken charges:
               1
     1  C    0.267454
     2  C    0.491518
     3  C   -0.085845
     4  C   -0.532508
     5  C   -0.320427
     6  C   -0.009028
     7  C   -0.331146
     8  H    0.196751
     9  C   -0.247619
    10  H    0.238619
    11  H    0.196885
    12  C   -0.270626
    13  H    0.221009
    14  C   -0.449154
    15  H    0.243370
    16  C   -0.333944
    17  C    0.546553
    18  H    0.211351
    19  B   -0.578756
    20  N    0.240041
    21  C   -0.403732
    22  H    0.165640
    23  H    0.179151
    24  H    0.168022
    25  C   -0.519487
    26  H    0.199053
    27  H    0.184816
    28  H    0.133446
    29  Cl   0.085917
    30  Cl   0.112677
 Sum of Mulliken charges =  -0.00000
 Mulliken charges with hydrogens summed into heavy atoms:
               1
     1  C    0.267454
     2  C    0.491518
     3  C   -0.085845
     4  C   -0.532508
     5  C   -0.123676
     6  C   -0.009028
     7  C   -0.092527
     9  C   -0.050734
    12  C   -0.049617
    14  C   -0.205783
    16  C   -0.122593
    17  C    0.546553
    19  B   -0.578756
    20  N    0.240041
    21  C    0.109082
    25  C   -0.002172
    29  Cl   0.085917
    30  Cl   0.112677
 Electronic spatial extent (au):  <R**2>=          11742.6505
 Charge=             -0.0000 electrons
 Dipole moment (field-independent basis, Debye):
    X=             -1.5672    Y=              1.9976    Z=             -0.9965  Tot=              2.7276
 Quadrupole moment (field-independent basis, Debye-Ang):
   XX=           -128.4222   YY=            -96.0586   ZZ=           -110.9808
   XY=             -5.1132   XZ=             -7.4553   YZ=              5.9459
 Traceless Quadrupole moment (field-independent basis, Debye-Ang):
   XX=            -16.6016   YY=             15.7619   ZZ=              0.8397
   XY=             -5.1132   XZ=             -7.4553   YZ=              5.9459
 Octapole moment (field-independent basis, Debye-Ang**2):
  XXX=           -692.1875  YYY=           -887.9641  ZZZ=           -260.7480  XYY=           -219.0163
  XXY=           -394.5265  XXZ=            -92.8715  XZZ=           -221.2821  YZZ=           -306.3953
  YYZ=            -40.9990  XYZ=             -5.6659
 Hexadecapole moment (field-independent basis, Debye-Ang**3):
 XXXX=          -3148.8973 YYYY=          -8640.3993 ZZZZ=          -3045.0200 XXXY=          -1677.6440
 XXXZ=           -526.6651 YYYX=          -1475.5264 YYYZ=           -330.7802 ZZZX=           -607.0586
 ZZZY=           -531.5718 XXYY=          -2323.1535 XXZZ=          -1083.5924 YYZZ=          -1903.5085
 XXYZ=           -186.6545 YYXZ=           -162.6947 ZZXY=           -485.9778
 N-N= 1.464009109656D+03 E-N=-6.556034526300D+03  KE= 1.536088798593D+03
 Breneman (CHELPG) radii used.
 Generate Potential Derived Charges using the Breneman model, NDens= 1.
 Grid spacing= 0.300 Box extension= 2.800
 NStep X,Y,Z=   34     47     45   Total possible points=       71910
 Number of Points to Fit=   17788

 **********************************************************************

            Electrostatic Properties Using The SCF Density.

 **********************************************************************

       Atomic Center    1 is at   1.916460  2.486067 -0.156483
       Atomic Center    2 is at   1.851872  2.547740 -1.572597
       Atomic Center    3 is at   1.575531  4.024035 -1.489844
       Atomic Center    4 is at   1.566310  3.948097 -0.078984
       Atomic Center    5 is at   1.402950  5.187022 -2.185818
       Atomic Center    6 is at   1.266703  5.039170  0.721087
       Atomic Center    7 is at   1.183738  6.325144 -1.380229
       Atomic Center    8 is at   1.428653  5.252845 -3.265909
       Atomic Center    9 is at   1.107726  6.258107 -0.000771
       Atomic Center   10 is at   1.040859  7.289657 -1.855507
       Atomic Center   11 is at   0.893348  7.169888  0.541719
       Atomic Center   12 is at   2.037855  1.457592 -2.366660
       Atomic Center   13 is at   1.994063  1.495615 -3.448562
       Atomic Center   14 is at   2.297746  0.237080 -1.688343
       Atomic Center   15 is at   2.441321 -0.668527 -2.266540
       Atomic Center   16 is at   2.391920  0.177729 -0.316877
       Atomic Center   17 is at   2.239420  1.329921  0.523677
       Atomic Center   18 is at   2.617547 -0.775871  0.147699
       Atomic Center   19 is at   2.573470  1.248885  2.025960
       Atomic Center   20 is at   1.119881  4.954483  2.099748
       Atomic Center   21 is at   0.987290  6.182386  2.856621
       Atomic Center   22 is at   0.017703  6.681416  2.699997
       Atomic Center   23 is at   1.077938  5.945436  3.918236
       Atomic Center   24 is at   1.788391  6.877084  2.599627
       Atomic Center   25 is at   0.267568  3.885167  2.595753
       Atomic Center   26 is at   0.521308  3.660186  3.633752
       Atomic Center   27 is at  -0.795453  4.165341  2.544331
       Atomic Center   28 is at   0.398930  2.977539  2.007903
       Atomic Center   29 is at   3.365783  2.583399  2.858323
       Atomic Center   30 is at   2.272522 -0.221546  2.960603
   17788 points will be used for fitting atomic charges
 Fitting point charges to electrostatic potential
 Charges from ESP fit, RMS=   0.00485 RRMS=   0.41413:
 ESP charges:
               1
     1  C    0.102138
     2  C    0.031392
     3  C    0.100734
     4  C   -0.173996
     5  C   -0.229691
     6  C    0.226033
     7  C   -0.063111
     8  H    0.135558
     9  C   -0.220351
    10  H    0.106494
    11  H    0.125780
    12  C   -0.145243
    13  H    0.127979
    14  C   -0.104035
    15  H    0.108669
    16  C   -0.140666
    17  C   -0.131097
    18  H    0.103561
    19  B    0.441616
    20  N   -0.173952
    21  C   -0.204489
    22  H    0.074872
    23  H    0.111594
    24  H    0.091441
    25  C    0.195775
    26  H    0.011971
    27  H   -0.025848
    28  H   -0.045671
    29  Cl  -0.234245
    30  Cl  -0.203213
 Sum of ESP charges =  -0.00000
 ESP charges with hydrogens summed into heavy atoms:
               1
     1  C    0.102138
     2  C    0.031392
     3  C    0.100734
     4  C   -0.173996
     5  C   -0.094133
     6  C    0.226033
     7  C    0.043383
     9  C   -0.094571
    12  C   -0.017264
    14  C    0.004634
    16  C   -0.037106
    17  C   -0.131097
    19  B    0.441616
    20  N   -0.173952
    21  C    0.073418
    25  C    0.136228
    29  Cl  -0.234245
    30  Cl  -0.203213
 Charge=  -0.00000 Dipole=    -1.6120     2.0813    -1.2158 Tot=     2.8998
 -----------------------------------------------------------------

              Electrostatic Properties (Atomic Units)

 -----------------------------------------------------------------
    Center     Electric         -------- Electric Field --------
               Potential          X             Y             Z
 -----------------------------------------------------------------
    1 Atom    -14.745850
    2 Atom    -14.757618
    3 Atom    -14.757551
    4 Atom    -14.763803
    5 Atom    -14.769965
    6 Atom    -14.720187
    7 Atom    -14.762470
    8 Atom     -1.095481
    9 Atom    -14.767426
   10 Atom     -1.098740
   11 Atom     -1.095308
   12 Atom    -14.758762
   13 Atom     -1.089220
   14 Atom    -14.765682
   15 Atom     -1.099327
   16 Atom    -14.762748
   17 Atom    -14.768880
   18 Atom     -1.102385
   19 Atom    -11.357316
   20 Atom    -18.367995
   21 Atom    -14.739141
   22 Atom     -1.105993
   23 Atom     -1.101312
   24 Atom     -1.101957
   25 Atom    -14.740945
   26 Atom     -1.107199
   27 Atom     -1.109622
   28 Atom     -1.103004
   29 Atom    -64.410666
   30 Atom    -64.407555
 -----------------------------------------------------------------
 Unable to Open any file for archive entry.
 1\1\GINC-IRENE5274\SP\RwB97XD\GenECP\C14H12B1Cl2N1\PENASFRA\11-Apr-202
 4\0\\# wb97xd/genecp scrf=(solvent=toluene,pcm) nosymm pop=(chelpg) sc
 fcyc=300\\cl_biphenylene_chelpg\\0,1\C,0,1.91646,2.486067,-0.156483\C,
 0,1.851872,2.54774,-1.572597\C,0,1.575531,4.024035,-1.489844\C,0,1.566
 31,3.948097,-0.078984\C,0,1.40295,5.187022,-2.185818\C,0,1.266703,5.03
 917,0.721087\C,0,1.183738,6.325144,-1.380229\H,0,1.428653,5.252845,-3.
 265909\C,0,1.107726,6.258107,-0.000771\H,0,1.040859,7.289657,-1.855507
 \H,0,0.893348,7.169888,0.541719\C,0,2.037855,1.457592,-2.36666\H,0,1.9
 94063,1.495615,-3.448562\C,0,2.297746,0.23708,-1.688343\H,0,2.441321,-
 0.668527,-2.26654\C,0,2.39192,0.177729,-0.316877\C,0,2.23942,1.329921,
 0.523677\H,0,2.617547,-0.775871,0.147699\B,0,2.57347,1.248885,2.02596\
 N,0,1.119881,4.954483,2.099748\C,0,0.98729,6.182386,2.856621\H,0,0.017
 703,6.681416,2.699997\H,0,1.077938,5.945436,3.918236\H,0,1.788391,6.87
 7084,2.599627\C,0,0.267568,3.885167,2.595753\H,0,0.521308,3.660186,3.6
 33752\H,0,-0.795453,4.165341,2.544331\H,0,0.39893,2.977539,2.007903\Cl
 ,0,3.365783,2.583399,2.858323\Cl,0,2.272522,-0.221546,2.960603\\Versio
 n=AS64L-G16RevC.02\HF=-1540.7016578\RMSD=4.898e-09\Dipole=-0.616577,0.
 785936,-0.3920484\Quadrupole=-12.3429192,11.7185925,0.6243266,-3.80153
 46,-5.5428524,4.4206554\PG=C01 [X(C14H12B1Cl2N1)]\\@
 The archive entry for this job was punched.


 I DON'T PRETEND TO UNDERSTAND THE UNIVERSE --
 IT'S A GREAT DEAL BIGGER THAN I AM.
       -- ATTR. TO WILLIAM ALLINGHAM (1828-89)
 Job cpu time:       0 days  1 hours 29 minutes 38.9 seconds.
 Elapsed time:       0 days  0 hours  0 minutes 54.7 seconds.
 File lengths (MBytes):  RWF=    223 Int=      0 D2E=      0 Chk=     16 Scr=      1
 Normal termination of Gaussian 16 at Thu Apr 11 15:29:05 2024.
