 Entering Gaussian System, Link 0=/ccc/products/gaussian-16-C.02/system/default/g16/g16
 Input=cl_dibenzofuran_chelpg.gjf
 Output=cl_dibenzofuran_chelpg.log
 Initial command:
 /ccc/products/gaussian-16-C.02/system/default/g16/l1.exe "/ccc/scratch/cont003/gen7343/penasfra/flp/b-n_flp/cl_dibenzofuran/reac/Gau-60225.inp" -scrdir="/ccc/scratch/cont003/gen7343/penasfra/flp/b-n_flp/cl_dibenzofuran/reac/"
 Entering Link 1 = /ccc/products/gaussian-16-C.02/system/default/g16/l1.exe PID=     60274.
  
 Copyright (c) 1988-2021, Gaussian, Inc.  All Rights Reserved.
  
 This is part of the Gaussian(R) 16 program.  It is based on
 the Gaussian(R) 09 system (copyright 2009, Gaussian, Inc.),
 the Gaussian(R) 03 system (copyright 2003, Gaussian, Inc.),
 the Gaussian(R) 98 system (copyright 1998, Gaussian, Inc.),
 the Gaussian(R) 94 system (copyright 1995, Gaussian, Inc.),
 the Gaussian 92(TM) system (copyright 1992, Gaussian, Inc.),
 the Gaussian 90(TM) system (copyright 1990, Gaussian, Inc.),
 the Gaussian 88(TM) system (copyright 1988, Gaussian, Inc.),
 the Gaussian 86(TM) system (copyright 1986, Carnegie Mellon
 University), and the Gaussian 82(TM) system (copyright 1983,
 Carnegie Mellon University). Gaussian is a federally registered
 trademark of Gaussian, Inc.
  
 This software contains proprietary and confidential information,
 including trade secrets, belonging to Gaussian, Inc.
  
 This software is provided under written license and may be
 used, copied, transmitted, or stored only in accord with that
 written license.
  
 The following legend is applicable only to US Government
 contracts under FAR:
  
                    RESTRICTED RIGHTS LEGEND
  
 Use, reproduction and disclosure by the US Government is
 subject to restrictions as set forth in subparagraphs (a)
 and (c) of the Commercial Computer Software - Restricted
 Rights clause in FAR 52.227-19.
  
 Gaussian, Inc.
 340 Quinnipiac St., Bldg. 40, Wallingford CT 06492
  
  
 ---------------------------------------------------------------
 Warning -- This program may not be used in any manner that
 competes with the business of Gaussian, Inc. or will provide
 assistance to any competitor of Gaussian, Inc.  The licensee
 of this program is prohibited from giving any competitor of
 Gaussian, Inc. access to this program.  By using this program,
 the user acknowledges that Gaussian, Inc. is engaged in the
 business of creating and licensing software in the field of
 computational chemistry and represents and warrants to the
 licensee that it is not a competitor of Gaussian, Inc. and that
 it will not use this program in any manner prohibited above.
 ---------------------------------------------------------------
  

 Cite this work as:
 Gaussian 16, Revision C.02,
 M. J. Frisch, G. W. Trucks, H. B. Schlegel, G. E. Scuseria, 
 M. A. Robb, J. R. Cheeseman, G. Scalmani, V. Barone, 
 G. A. Petersson, H. Nakatsuji, X. Li, M. Caricato, A. V. Marenich, 
 J. Bloino, B. G. Janesko, R. Gomperts, B. Mennucci, H. P. Hratchian, 
 J. V. Ortiz, A. F. Izmaylov, J. L. Sonnenberg, D. Williams-Young, 
 F. Ding, F. Lipparini, F. Egidi, J. Goings, B. Peng, A. Petrone, 
 T. Henderson, D. Ranasinghe, V. G. Zakrzewski, J. Gao, N. Rega, 
 G. Zheng, W. Liang, M. Hada, M. Ehara, K. Toyota, R. Fukuda, 
 J. Hasegawa, M. Ishida, T. Nakajima, Y. Honda, O. Kitao, H. Nakai, 
 T. Vreven, K. Throssell, J. A. Montgomery, Jr., J. E. Peralta, 
 F. Ogliaro, M. J. Bearpark, J. J. Heyd, E. N. Brothers, K. N. Kudin, 
 V. N. Staroverov, T. A. Keith, R. Kobayashi, J. Normand, 
 K. Raghavachari, A. P. Rendell, J. C. Burant, S. S. Iyengar, 
 J. Tomasi, M. Cossi, J. M. Millam, M. Klene, C. Adamo, R. Cammi, 
 J. W. Ochterski, R. L. Martin, K. Morokuma, O. Farkas, 
 J. B. Foresman, and D. J. Fox, Gaussian, Inc., Wallingford CT, 2019.
 
 ******************************************
 Gaussian 16:  AS64L-G16RevC.02  7-Dec-2021
                11-Apr-2024 
 ******************************************
 %nprocshared=128
 Will use up to  128 processors via shared memory.
 %mem=30GB
 %chk=cl_dibenzofuran_chelpg.chk
 ----------------------------------------------------------------------
 # wb97xd/genecp scrf=(solvent=toluene,pcm) nosymm pop=(chelpg) scfcyc=
 300
 ----------------------------------------------------------------------
 1/38=1,172=1/1;
 2/12=2,15=1,17=6,18=5,40=1/2;
 3/5=7,11=2,16=1,17=8,25=1,30=1,70=2201,72=13,74=-58/1,2,3;
 4//1;
 5/5=2,7=300,38=5,53=13/2;
 6/7=2,8=2,9=2,10=2,15=8,20=3,28=1/1,2;
 99/5=1,9=1/99;
 ----------------------
 cl_dibenzofuran_chelpg
 ----------------------
 Symbolic Z-matrix:
 Charge =  0 Multiplicity = 1
 C                     2.10373   2.16718   0.2122 
 C                     1.91391   2.53336  -1.12629 
 O                     1.62328   3.12345   1.04612 
 C                     1.2608    3.8276   -1.09421 
 C                     1.1211    4.12844   0.25636 
 C                     0.77134   4.70083  -2.06665 
 C                     0.51056   5.2945    0.74066 
 C                     0.15348   5.85536  -1.62302 
 H                     0.86381   4.47833  -3.12258 
 C                     0.03132   6.14901  -0.25874 
 H                    -0.24369   6.56338  -2.3415 
 H                    -0.45044   7.07564   0.0239 
 C                     2.33483   1.68072  -2.13891 
 H                     2.19503   1.94748  -3.18041 
 C                     2.93774   0.47909  -1.78742 
 H                     3.27424  -0.20237  -2.55928 
 C                     3.11456   0.13791  -0.44988 
 C                     2.70688   0.96697   0.61237 
 H                     3.58856  -0.80757  -0.21553 
 B                     2.93459   0.5378    2.07749 
 N                     0.35604   5.53014   2.10876 
 C                     1.55688   5.43455   2.93288 
 H                     2.21811   6.30229   2.78506 
 H                     1.26217   5.39932   3.98357 
 H                     2.10983   4.52594   2.70858 
 C                    -0.48908   6.64484   2.48834 
 H                    -0.65926   6.59779   3.5653 
 H                    -0.04081   7.62479   2.25692 
 H                    -1.45759   6.57463   1.98999 
 Cl                    2.51248   1.53529   3.46566 
 Cl                    3.66502  -1.0318    2.45354 
 
                          Input orientation:                          
 ---------------------------------------------------------------------
 Center     Atomic      Atomic             Coordinates (Angstroms)
 Number     Number       Type             X           Y           Z
 ---------------------------------------------------------------------
      1          6           0        2.103734    2.167178    0.212201
      2          6           0        1.913910    2.533357   -1.126289
      3          8           0        1.623281    3.123448    1.046123
      4          6           0        1.260803    3.827601   -1.094211
      5          6           0        1.121102    4.128444    0.256356
      6          6           0        0.771341    4.700828   -2.066647
      7          6           0        0.510559    5.294504    0.740661
      8          6           0        0.153479    5.855361   -1.623015
      9          1           0        0.863805    4.478329   -3.122583
     10          6           0        0.031324    6.149011   -0.258740
     11          1           0       -0.243686    6.563380   -2.341497
     12          1           0       -0.450440    7.075640    0.023895
     13          6           0        2.334827    1.680724   -2.138914
     14          1           0        2.195029    1.947484   -3.180407
     15          6           0        2.937742    0.479086   -1.787415
     16          1           0        3.274236   -0.202366   -2.559284
     17          6           0        3.114558    0.137911   -0.449882
     18          6           0        2.706877    0.966967    0.612372
     19          1           0        3.588555   -0.807574   -0.215533
     20          5           0        2.934589    0.537803    2.077490
     21          7           0        0.356043    5.530144    2.108756
     22          6           0        1.556878    5.434547    2.932875
     23          1           0        2.218114    6.302291    2.785057
     24          1           0        1.262167    5.399317    3.983572
     25          1           0        2.109830    4.525938    2.708584
     26          6           0       -0.489080    6.644838    2.488341
     27          1           0       -0.659264    6.597786    3.565303
     28          1           0       -0.040808    7.624786    2.256917
     29          1           0       -1.457590    6.574632    1.989994
     30         17           0        2.512484    1.535293    3.465660
     31         17           0        3.665024   -1.031795    2.453544
 ---------------------------------------------------------------------
                    Distance matrix (angstroms):
                    1          2          3          4          5
     1  C    0.000000
     2  C    1.400598   0.000000
     3  O    1.356729   2.269812   0.000000
     4  C    2.274698   1.450050   2.282159   0.000000
     5  C    2.194101   2.254896   1.373293   1.390703   0.000000
     6  C    3.658934   2.624437   3.592112   1.395611   2.417912
     7  C    3.549316   3.616466   2.458646   2.466055   1.402501
     8  C    4.557873   3.792303   4.092428   2.370150   2.729574
     9  H    4.242597   2.978393   4.448665   2.166875   3.406736
    10  C    4.513498   4.167700   3.659375   2.756551   2.352792
    11  H    5.599852   4.730014   5.176357   3.362097   3.813188
    12  H    5.536449   5.248372   4.578765   3.837743   3.348096
    13  C    2.412008   1.389087   3.568222   2.618017   3.633425
    14  H    3.400939   2.154455   4.424177   2.959701   4.209661
    15  C    2.746578   2.388587   4.092603   3.808570   4.560153
    16  H    3.829614   3.374632   5.175486   4.737192   5.596403
    17  C    2.361788   2.763556   3.657235   4.179160   4.516303
    18  C    1.401579   2.470894   2.452087   3.631361   3.554767
    19  H    3.352134   3.846522   4.572419   5.260737   5.538527
    20  B    2.612372   3.910016   3.077143   4.866623   4.415650
    21  N    4.238028   4.676879   2.920148   3.738481   2.445703
    22  C    4.286819   5.002118   2.984195   4.345959   3.009910
    23  H    4.871533   5.440223   3.671888   4.699921   3.510466
    24  H    5.037678   5.894843   3.733442   5.315465   3.940451
    25  H    3.434489   4.326085   2.228785   3.958506   2.673763
    26  C    5.652693   5.978644   4.352269   4.881966   3.729166
    27  H    6.205460   6.719512   4.860793   5.750796   4.496274
    28  H    6.210105   6.417917   4.949470   5.229040   4.192456
    29  H    5.938790   6.116383   4.721581   4.944508   3.954616
    30  Cl   3.339364   4.737132   3.027718   5.254884   4.354309
    31  Cl   4.206504   5.347141   4.838966   6.479242   6.158510
                    6          7          8          9         10
     6  C    0.000000
     7  C    2.881221   0.000000
     8  C    1.382573   2.455409   0.000000
     9  H    1.083077   3.964288   2.156266   0.000000
    10  C    2.431746   1.399518   1.400856   3.418450   0.000000
    11  H    2.138907   3.417401   1.084088   2.486779   2.141310
    12  H    3.391585   2.147025   2.136846   4.286442   1.081952
    13  C    3.401579   4.967828   4.738357   3.310303   5.367194
    14  H    3.293668   5.423537   4.675992   2.860188   5.556131
    15  C    4.753353   5.955723   6.056689   4.698705   6.552264
    16  H    5.527068   6.981628   6.878356   5.294940   7.493262
    17  C    5.378179   5.898191   6.544728   5.572113   6.758416
    18  C    4.986498   4.854673   5.950898   5.447611   5.896694
    19  H    6.458004   6.900994   7.627284   6.619363   7.813439
    20  B    6.259736   5.503566   7.050158   6.845192   6.735917
    21  N    4.277175   1.396813   3.751388   5.360135   2.468497
    22  C    5.113769   2.433146   4.785681   6.169544   3.608903
    23  H    5.310072   2.847970   4.888104   6.329392   3.751033
    24  H    6.110151   3.330521   5.733322   7.176653   4.480427
    25  H    4.962355   2.649733   4.935324   5.962999   3.969832
    26  C    5.110357   2.424266   4.235493   6.164943   2.839563
    27  H    6.112605   3.323497   5.303809   7.179113   3.911728
    28  H    5.282265   2.834299   4.268780   6.297423   2.917472
    29  H    4.993557   2.659543   4.020787   5.993480   2.730352
    30  Cl   6.607466   5.056183   7.079725   7.401659   6.427574
    31  Cl   7.852929   7.273698   8.739691   8.324751   8.492599
                   11         12         13         14         15
    11  H    0.000000
    12  H    2.429040   0.000000
    13  C    5.525405   6.445198   0.000000
    14  H    5.287494   6.600306   1.084164   0.000000
    15  C    6.888187   7.633816   1.389601   2.155978   0.000000
    16  H    7.628796   8.574112   2.145980   2.484419   1.083230
    17  C    7.492841   7.814458   2.416833   3.402331   1.391639
    18  C    6.982192   6.901510   2.866609   3.950769   2.459737
    19  H    8.575358   8.860918   3.385684   4.280507   2.133041
    20  B    8.120127   7.643231   4.409540   5.493599   3.865352
    21  N    4.607820   2.717649   6.064348   6.647749   6.881752
    22  C    5.686413   3.896752   6.357628   7.066758   6.981727
    23  H    5.692994   3.917048   6.754109   7.385908   7.438755
    24  H    6.605235   4.628404   7.243160   8.006746   7.766628
    25  H    5.932413   4.501502   5.625309   6.429300   6.105445
    26  C    4.836754   2.502115   7.350399   7.836088   8.248739
    27  H    5.921501   3.579598   8.104330   8.676226   8.889799
    28  H    4.723680   2.335754   7.765233   8.172834   8.734381
    29  H    4.498389   2.265150   7.441817   7.841248   8.410912
    30  Cl   8.160956   7.163806   5.609275   6.666400   5.375055
    31  Cl   9.795770   9.411203   5.497077   6.540519   4.560420
                   16         17         18         19         20
    16  H    0.000000
    17  C    2.142630   0.000000
    18  C    3.427629   1.407807   0.000000
    19  H    2.440951   1.083298   2.147505   0.000000
    20  B    4.707747   2.565134   1.543569   2.737821   0.000000
    21  N    7.947837   6.575121   5.346791   7.484526   5.619016
    22  C    8.055304   6.474856   5.163962   7.280402   5.158282
    23  H    8.484571   7.019118   5.781447   7.837846   5.851778
    24  H    8.845125   7.125255   5.753078   7.846659   5.483107
    25  H    7.173781   5.499106   4.173349   6.259668   4.121132
    26  C    9.301896   7.997466   6.780237   8.914959   7.013286
    27  H    9.961177   8.490785   7.194222   9.336918   7.200886
    28  H    9.769832   8.563667   7.387886   9.507365   7.688336
    29  H    9.434713   8.263710   7.119448   9.210043   7.466070
    30  Cl   6.316619   4.200790   2.915825   4.494234   1.760731
    31  Cl   5.095990   3.178224   2.881494   2.679570   1.771607
                   21         22         23         24         25
    21  N    0.000000
    22  C    1.459560   0.000000
    23  H    2.126241   1.100937   0.000000
    24  H    2.086411   1.091815   1.779223   0.000000
    25  H    2.108078   1.087029   1.781293   1.762645   0.000000
    26  C    1.449435   2.418338   2.744864   2.617996   3.360443
    27  H    2.071771   2.581545   2.995898   2.302862   3.562921
    28  H    2.137046   2.794041   2.670328   3.103513   3.798961
    29  H    2.096264   3.357951   3.770556   3.571106   4.176123
    30  Cl   4.738171   4.049843   4.824328   4.094167   3.111150
    31  Cl   7.357124   6.818183   7.482798   7.033769   5.776856
                   26         27         28         29         30
    26  C    0.000000
    27  H    1.091340   0.000000
    28  H    1.102181   1.774568   0.000000
    29  H    1.091462   1.766199   1.783632   0.000000
    30  Cl   6.005996   5.974843   6.712845   6.582858   0.000000
    31  Cl   8.728602   8.840022   9.418506   9.182254   2.990429
                   31
    31  Cl   0.000000
 Symmetry turned off by external request.
 Stoichiometry    C14H12BCl2NO
 Framework group  C1[X(C14H12BCl2NO)]
 Deg. of freedom    87
 Full point group                 C1      NOp   1
 Rotational constants (GHZ):           0.5007609           0.2266324           0.1578720
 General basis read from cards:  (5D, 7F)
 ======================================================================================================
                                       Pseudopotential Parameters
 ======================================================================================================
  Center     Atomic      Valence      Angular      Power
  Number     Number     Electrons     Momentum     of R      Exponent        Coefficient   SO-Coeffient
 ======================================================================================================
    1          6
                                   No pseudopotential on this center.
    2          6
                                   No pseudopotential on this center.
    3          8
                                   No pseudopotential on this center.
    4          6
                                   No pseudopotential on this center.
    5          6
                                   No pseudopotential on this center.
    6          6
                                   No pseudopotential on this center.
    7          6
                                   No pseudopotential on this center.
    8          6
                                   No pseudopotential on this center.
    9          1
                                   No pseudopotential on this center.
   10          6
                                   No pseudopotential on this center.
   11          1
                                   No pseudopotential on this center.
   12          1
                                   No pseudopotential on this center.
   13          6
                                   No pseudopotential on this center.
   14          1
                                   No pseudopotential on this center.
   15          6
                                   No pseudopotential on this center.
   16          1
                                   No pseudopotential on this center.
   17          6
                                   No pseudopotential on this center.
   18          6
                                   No pseudopotential on this center.
   19          1
                                   No pseudopotential on this center.
   20          5
                                   No pseudopotential on this center.
   21          7
                                   No pseudopotential on this center.
   22          6
                                   No pseudopotential on this center.
   23          1
                                   No pseudopotential on this center.
   24          1
                                   No pseudopotential on this center.
   25          1
                                   No pseudopotential on this center.
   26          6
                                   No pseudopotential on this center.
   27          1
                                   No pseudopotential on this center.
   28          1
                                   No pseudopotential on this center.
   29          1
                                   No pseudopotential on this center.
   30         17
                                   No pseudopotential on this center.
   31         17
                                   No pseudopotential on this center.
 ======================================================================================================
   518 basis functions,   826 primitive gaussians,   537 cartesian basis functions
    75 alpha electrons       75 beta electrons
       nuclear repulsion energy      1590.2822083397 Hartrees.
 NAtoms=   31 NActive=   31 NUniq=   31 SFac= 1.00D+00 NAtFMM=   60 NAOKFM=F Big=F
 Integral buffers will be    131072 words long.
 Raffenetti 2 integral format.
 Two-electron integral symmetry is turned off.
 Nuclear repulsion after empirical dispersion term =     1590.2595837222 Hartrees.
 ------------------------------------------------------------------------------
 Polarizable Continuum Model (PCM)
 =================================
 Model                : PCM.
 Atomic radii         : UFF (Universal Force Field).
 Polarization charges : Total charges.
 Charge compensation  : None.
 Solution method      : On-the-fly selection.
 Cavity type          : Scaled VdW (van der Waals Surface) (Alpha=1.100).
 Cavity algorithm     : GePol (No added spheres)
                        Default sphere list used, NSphG=   31.
                        Lebedev-Laikov grids with approx.  5.0 points / Ang**2.
                        Smoothing algorithm: York/Karplus (Gamma=1.0000).
                        Polarization charges: spherical gaussians, with
                                              point-specific exponents (IZeta= 3).
                        Self-potential: point-specific (ISelfS= 7).
                        Self-field    : sphere-specific E.n sum rule (ISelfD= 2).
 Solvent              : Toluene, Eps=   2.374100 Eps(inf)=   2.238315
 ------------------------------------------------------------------------------
 One-electron integrals computed using PRISM.
   1 Symmetry operations used in ECPInt.
 ECPInt:  NShTT=   17766 NPrTT=   63590 LenC2=   15774 LenP2D=   38410.
 LDataN:  DoStor=T MaxTD1= 4 Len=   56
 Number of processors reduced to  90 by ecpmxn.
 NBasis=   518 RedAO= T EigKep=  1.05D-06  NBF=   518
 NBsUse=   512 1.00D-06 EigRej=  7.06D-07 NBFU=   512
 ExpMin= 3.15D-02 ExpMax= 1.06D+05 ExpMxC= 3.62D+03 IAcc=3 IRadAn=         5 AccDes= 0.00D+00
 Harris functional with IExCor= 4639 and IRadAn=       5 diagonalized for initial guess.
 HarFok:  IExCor= 4639 AccDes= 0.00D+00 IRadAn=         5 IDoV= 1 UseB2=F ITyADJ=14
 ICtDFT=  3500011 ScaDFX=  1.000000  1.000000  1.000000  1.000000
 FoFCou: FMM=F IPFlag=           0 FMFlag=      100000 FMFlg1=           0
         NFxFlg=           0 DoJE=T BraDBF=F KetDBF=T FulRan=T
         wScrn=  0.000000 ICntrl=       500 IOpCl=  0 I1Cent=   200000004 NGrid=           0
         NMat0=    1 NMatS0=      1 NMatT0=    0 NMatD0=    1 NMtDS0=    0 NMtDT0=    0
 Symmetry not used in FoFCou.
 Requested convergence on RMS density matrix=1.00D-08 within 300 cycles.
 Requested convergence on MAX density matrix=1.00D-06.
 Requested convergence on             energy=1.00D-06.
 No special actions if energy rises.
 Inv3:  Mode=1 IEnd=    18199107.
 Iteration    1 A*A^-1 deviation from unit magnitude is 4.88D-15 for   2453.
 Iteration    1 A*A^-1 deviation from orthogonality  is 2.45D-15 for   1885   1607.
 Iteration    1 A^-1*A deviation from unit magnitude is 5.33D-15 for   2453.
 Iteration    1 A^-1*A deviation from orthogonality  is 1.91D-15 for   2457   2226.
 Error on total polarization charges =  0.01264
 SCF Done:  E(RwB97XD) =  -1615.99752405     A.U. after   17 cycles
            NFock= 17  Conv=0.36D-08     -V/T= 2.0030

 **********************************************************************

            Population analysis using the SCF Density.

 **********************************************************************

 Alpha  occ. eigenvalues -- -101.72459-101.72362 -19.32317 -14.45143 -10.37035
 Alpha  occ. eigenvalues --  -10.35302 -10.33984 -10.31574 -10.31223 -10.31156
 Alpha  occ. eigenvalues --  -10.30921 -10.30680 -10.30415 -10.30331 -10.30072
 Alpha  occ. eigenvalues --  -10.29413 -10.29347 -10.29210  -9.59512  -9.59431
 Alpha  occ. eigenvalues --   -7.34166  -7.34090  -7.33637  -7.33571  -7.33474
 Alpha  occ. eigenvalues --   -7.33368  -6.95794  -1.23355  -1.05558  -0.98478
 Alpha  occ. eigenvalues --   -0.97033  -0.96062  -0.92698  -0.89886  -0.87722
 Alpha  occ. eigenvalues --   -0.85140  -0.84223  -0.81545  -0.76931  -0.74574
 Alpha  occ. eigenvalues --   -0.72852  -0.70479  -0.67724  -0.63677  -0.62681
 Alpha  occ. eigenvalues --   -0.60730  -0.59582  -0.57884  -0.57486  -0.55787
 Alpha  occ. eigenvalues --   -0.55628  -0.55210  -0.54249  -0.52671  -0.51755
 Alpha  occ. eigenvalues --   -0.50547  -0.49807  -0.48810  -0.47992  -0.47652
 Alpha  occ. eigenvalues --   -0.47172  -0.46100  -0.45808  -0.45518  -0.45306
 Alpha  occ. eigenvalues --   -0.44880  -0.43502  -0.41380  -0.40769  -0.39289
 Alpha  occ. eigenvalues --   -0.38978  -0.36490  -0.33239  -0.31015  -0.28074
 Alpha virt. eigenvalues --   -0.02164   0.03008   0.03862   0.04441   0.04911
 Alpha virt. eigenvalues --    0.05875   0.06054   0.06125   0.06671   0.07015
 Alpha virt. eigenvalues --    0.07348   0.07755   0.08007   0.08108   0.09046
 Alpha virt. eigenvalues --    0.09757   0.10173   0.10348   0.10658   0.11519
 Alpha virt. eigenvalues --    0.11939   0.12342   0.12602   0.12988   0.13840
 Alpha virt. eigenvalues --    0.14414   0.14510   0.14836   0.15201   0.15740
 Alpha virt. eigenvalues --    0.15868   0.16076   0.16629   0.16767   0.16994
 Alpha virt. eigenvalues --    0.17418   0.17819   0.18113   0.18517   0.18722
 Alpha virt. eigenvalues --    0.18839   0.19376   0.19403   0.19612   0.19841
 Alpha virt. eigenvalues --    0.20216   0.20376   0.20654   0.21078   0.21259
 Alpha virt. eigenvalues --    0.21725   0.21957   0.22151   0.22334   0.22488
 Alpha virt. eigenvalues --    0.22724   0.23080   0.23365   0.23843   0.23999
 Alpha virt. eigenvalues --    0.24279   0.25166   0.25233   0.25711   0.25918
 Alpha virt. eigenvalues --    0.26149   0.26542   0.26805   0.27362   0.27669
 Alpha virt. eigenvalues --    0.28109   0.28331   0.28690   0.29090   0.29625
 Alpha virt. eigenvalues --    0.30359   0.30476   0.30588   0.31086   0.31637
 Alpha virt. eigenvalues --    0.31784   0.32558   0.33097   0.33458   0.33933
 Alpha virt. eigenvalues --    0.34107   0.34405   0.35045   0.35180   0.35672
 Alpha virt. eigenvalues --    0.35793   0.36392   0.36728   0.37078   0.37702
 Alpha virt. eigenvalues --    0.37920   0.38511   0.38629   0.39282   0.40011
 Alpha virt. eigenvalues --    0.40257   0.40801   0.40917   0.41302   0.41549
 Alpha virt. eigenvalues --    0.42486   0.43307   0.43400   0.44256   0.44912
 Alpha virt. eigenvalues --    0.45156   0.45781   0.47651   0.48210   0.48779
 Alpha virt. eigenvalues --    0.49915   0.50528   0.52604   0.53147   0.55312
 Alpha virt. eigenvalues --    0.56105   0.56624   0.57479   0.58119   0.58406
 Alpha virt. eigenvalues --    0.59582   0.59763   0.60047   0.61140   0.61494
 Alpha virt. eigenvalues --    0.61796   0.62801   0.63501   0.63810   0.64142
 Alpha virt. eigenvalues --    0.64357   0.65595   0.66159   0.66525   0.66862
 Alpha virt. eigenvalues --    0.67139   0.68091   0.68285   0.69034   0.69532
 Alpha virt. eigenvalues --    0.69821   0.70178   0.70745   0.71416   0.71888
 Alpha virt. eigenvalues --    0.72904   0.73776   0.74227   0.74319   0.74644
 Alpha virt. eigenvalues --    0.75140   0.76337   0.76717   0.77384   0.78539
 Alpha virt. eigenvalues --    0.79771   0.80493   0.81711   0.82537   0.82922
 Alpha virt. eigenvalues --    0.83362   0.84475   0.85443   0.86455   0.87097
 Alpha virt. eigenvalues --    0.87514   0.87617   0.89031   0.89613   0.90922
 Alpha virt. eigenvalues --    0.92122   0.92744   0.93601   0.94115   0.95034
 Alpha virt. eigenvalues --    0.95246   0.95712   0.96298   0.96644   0.97695
 Alpha virt. eigenvalues --    0.98553   0.98798   0.99593   1.00348   1.00669
 Alpha virt. eigenvalues --    1.00747   1.01393   1.02804   1.03694   1.03848
 Alpha virt. eigenvalues --    1.04534   1.04952   1.06014   1.07201   1.07454
 Alpha virt. eigenvalues --    1.08630   1.09312   1.10282   1.10650   1.11680
 Alpha virt. eigenvalues --    1.12213   1.13354   1.14190   1.14329   1.15719
 Alpha virt. eigenvalues --    1.17472   1.18013   1.18780   1.20027   1.20793
 Alpha virt. eigenvalues --    1.21301   1.21985   1.22583   1.24058   1.26115
 Alpha virt. eigenvalues --    1.29546   1.30839   1.33105   1.35710   1.36421
 Alpha virt. eigenvalues --    1.37571   1.38104   1.40303   1.41583   1.44536
 Alpha virt. eigenvalues --    1.45266   1.46386   1.47310   1.47648   1.49609
 Alpha virt. eigenvalues --    1.50883   1.53126   1.54440   1.54713   1.57326
 Alpha virt. eigenvalues --    1.58729   1.59683   1.61856   1.61895   1.62342
 Alpha virt. eigenvalues --    1.63108   1.64715   1.65183   1.65708   1.67557
 Alpha virt. eigenvalues --    1.67938   1.68890   1.69949   1.70635   1.72025
 Alpha virt. eigenvalues --    1.73355   1.74859   1.75099   1.76489   1.76791
 Alpha virt. eigenvalues --    1.77535   1.79244   1.79875   1.80547   1.81588
 Alpha virt. eigenvalues --    1.82261   1.84110   1.84629   1.88052   1.88807
 Alpha virt. eigenvalues --    1.90600   1.91156   1.91897   1.93371   1.94305
 Alpha virt. eigenvalues --    1.95792   1.96177   1.96694   1.97744   1.99119
 Alpha virt. eigenvalues --    1.99733   2.00687   2.01009   2.02148   2.03948
 Alpha virt. eigenvalues --    2.05044   2.05690   2.06845   2.07791   2.08395
 Alpha virt. eigenvalues --    2.10243   2.12702   2.15019   2.16017   2.16461
 Alpha virt. eigenvalues --    2.16882   2.19353   2.22533   2.24392   2.26506
 Alpha virt. eigenvalues --    2.28472   2.29612   2.30979   2.31448   2.33771
 Alpha virt. eigenvalues --    2.35095   2.37052   2.38581   2.39069   2.40874
 Alpha virt. eigenvalues --    2.41291   2.41914   2.44558   2.45520   2.49679
 Alpha virt. eigenvalues --    2.51305   2.52230   2.52687   2.54401   2.55806
 Alpha virt. eigenvalues --    2.57254   2.58003   2.58862   2.61600   2.61989
 Alpha virt. eigenvalues --    2.64852   2.66499   2.66649   2.67473   2.68489
 Alpha virt. eigenvalues --    2.71263   2.72027   2.74791   2.75272   2.76024
 Alpha virt. eigenvalues --    2.76718   2.78695   2.79449   2.80681   2.81234
 Alpha virt. eigenvalues --    2.82521   2.83381   2.85359   2.85694   2.85858
 Alpha virt. eigenvalues --    2.87359   2.87494   2.87832   2.88835   2.89619
 Alpha virt. eigenvalues --    2.90285   2.91739   2.91894   2.94513   2.96164
 Alpha virt. eigenvalues --    2.97461   2.99348   3.01008   3.02996   3.05391
 Alpha virt. eigenvalues --    3.06687   3.12428   3.13859   3.15349   3.17750
 Alpha virt. eigenvalues --    3.19172   3.20259   3.24915   3.26623   3.27530
 Alpha virt. eigenvalues --    3.28936   3.31671   3.34674   3.37204   3.41858
 Alpha virt. eigenvalues --    3.48289   3.49675   3.50662   3.52675   3.60828
 Alpha virt. eigenvalues --    3.63442   3.64468   3.66972   3.67812   3.71662
 Alpha virt. eigenvalues --    3.73880   3.79486   3.85537   3.87415   3.88046
 Alpha virt. eigenvalues --    3.91876   3.92785   3.94183   4.09085   4.11623
 Alpha virt. eigenvalues --    4.12760   4.14890   4.21507   4.25392   4.33547
 Alpha virt. eigenvalues --    4.36857   4.39349   4.63869   4.91254   4.94906
 Alpha virt. eigenvalues --    4.99621   5.13123   5.14924   5.61806   6.06347
 Alpha virt. eigenvalues --    9.92945  10.03856  14.56801  23.68185  23.83896
 Alpha virt. eigenvalues --   24.06350  24.07342  24.08149  24.09378  24.10400
 Alpha virt. eigenvalues --   24.11090  24.17938  24.19032  24.20945  24.24148
 Alpha virt. eigenvalues --   24.30413  24.33456  26.00855  26.08031  26.19268
 Alpha virt. eigenvalues --   26.37810  26.55707  26.71906  35.74857  50.13192
 Alpha virt. eigenvalues --  216.01868 216.14322
          Condensed to atoms (all electrons):
               1          2          3          4          5          6
     1  C   17.968985  -3.787144  -0.313605  -6.437125   2.039928  -3.608111
     2  C   -3.787144  15.041160   0.558586   6.339528  -6.073203   1.557477
     3  O   -0.313605   0.558586   8.348062   0.589348  -0.085515   0.172626
     4  C   -6.437125   6.339528   0.589348  15.105923  -2.996937   1.457223
     5  C    2.039928  -6.073203  -0.085515  -2.996937  16.663711  -1.620270
     6  C   -3.608111   1.557477   0.172626   1.457223  -1.620270   9.631468
     7  C    1.612295  -1.924063  -0.551386  -2.884066   0.606510   0.033328
     8  C   -1.157828   0.472813   0.069069  -1.419033  -0.595816   2.200160
     9  H    0.026753  -0.023085  -0.001091  -0.017852   0.049119   0.385034
    10  C    2.518999  -1.670581  -0.151041  -1.431888  -1.139258  -3.730227
    11  H   -0.027655   0.009775   0.001461  -0.029888   0.019556   0.021582
    12  H    0.007495  -0.024863  -0.003858   0.065502   0.009943  -0.075320
    13  C    0.160933   0.232909   0.066225  -0.003462  -2.777342   0.694143
    14  H    0.009925  -0.058594  -0.003811  -0.018311  -0.008072   0.050060
    15  C   -1.409624   0.406522   0.060898   1.104015  -1.655055   0.385112
    16  H   -0.023032   0.051284   0.001571   0.028759  -0.042200   0.020509
    17  C   -1.811187  -2.812291  -0.250954  -2.538767   3.436687  -1.007659
    18  C    1.496004  -3.384635  -0.507364  -2.160919   1.247070  -0.326558
    19  H   -0.016345  -0.053427  -0.005986  -0.060385   0.051592  -0.022829
    20  B    0.289845  -0.087734  -0.014178  -0.229279   0.041944  -0.061586
    21  N   -0.155432  -0.048031   0.022617   0.165228   0.143021   0.035989
    22  C    0.091572  -0.051630  -0.010733  -0.100786  -0.135395   0.000115
    23  H    0.019988   0.014555   0.000335   0.003358   0.008291   0.004275
    24  H    0.000328  -0.012156  -0.000217  -0.011729  -0.034038  -0.000450
    25  H   -0.175411   0.057443   0.000432   0.130875   0.249900   0.019959
    26  C   -0.054486  -0.009572  -0.014929   0.096015   0.211151  -0.048570
    27  H   -0.006312  -0.002987  -0.001522   0.010322   0.003126  -0.005881
    28  H    0.001609   0.006793   0.002068  -0.009353   0.011433   0.013609
    29  H    0.008582  -0.000122   0.000096  -0.016290  -0.003773  -0.004217
    30  Cl  -0.377611  -0.153590  -0.007673  -0.152887   0.130442  -0.013199
    31  Cl  -0.131086  -0.084379   0.001685  -0.047395   0.044230  -0.005229
               7          8          9         10         11         12
     1  C    1.612295  -1.157828   0.026753   2.518999  -0.027655   0.007495
     2  C   -1.924063   0.472813  -0.023085  -1.670581   0.009775  -0.024863
     3  O   -0.551386   0.069069  -0.001091  -0.151041   0.001461  -0.003858
     4  C   -2.884066  -1.419033  -0.017852  -1.431888  -0.029888   0.065502
     5  C    0.606510  -0.595816   0.049119  -1.139258   0.019556   0.009943
     6  C    0.033328   2.200160   0.385034  -3.730227   0.021582  -0.075320
     7  C   10.934993  -1.328617   0.003239  -1.246191   0.002514  -0.035129
     8  C   -1.328617   9.604399  -0.069732  -1.094007   0.462519  -0.186492
     9  H    0.003239  -0.069732   0.469808  -0.010326  -0.010731   0.002301
    10  C   -1.246191  -1.094007  -0.010326  13.967416  -0.142004   0.595558
    11  H    0.002514   0.462519  -0.010731  -0.142004   0.464699  -0.017372
    12  H   -0.035129  -0.186492   0.002301   0.595558  -0.017372   0.496537
    13  C   -0.024098   0.106844  -0.000144  -0.393195   0.006350  -0.009632
    14  H    0.007682   0.027814  -0.001757  -0.007510   0.001728  -0.000558
    15  C   -0.168905  -0.039931   0.011906  -0.225379   0.001190  -0.001978
    16  H   -0.002585   0.004968   0.000720  -0.002012   0.000001  -0.000007
    17  C    0.424823  -0.273052   0.008929   0.296986  -0.003755   0.003689
    18  C    0.849873  -0.102007   0.000998   0.422739  -0.001402   0.005691
    19  H    0.009589  -0.004276  -0.000125   0.003112  -0.000013   0.000021
    20  B    0.023344  -0.020369   0.001235   0.037297  -0.000448   0.000551
    21  N    0.034763  -0.056155   0.000631  -0.479498  -0.001406  -0.024274
    22  C   -0.030791   0.046467  -0.000376   0.011764   0.000969  -0.006315
    23  H   -0.015818  -0.003926   0.000014  -0.027195  -0.000562   0.001057
    24  H    0.023778   0.013815  -0.000027   0.031166   0.000238  -0.001805
    25  H   -0.105856  -0.047010   0.000579  -0.114353  -0.000480   0.002248
    26  C    0.115515  -0.323998  -0.000811  -0.394051   0.000131   0.016769
    27  H    0.011457  -0.021744  -0.000028   0.027775  -0.000288   0.007938
    28  H   -0.021071   0.040799   0.000061  -0.031409   0.000959  -0.013477
    29  H   -0.008559   0.000600  -0.000203   0.016249   0.000872  -0.008461
    30  Cl   0.064254  -0.002724   0.000088   0.020682  -0.000031   0.000243
    31  Cl   0.007221  -0.000678   0.000035   0.002092  -0.000006   0.000020
              13         14         15         16         17         18
     1  C    0.160933   0.009925  -1.409624  -0.023032  -1.811187   1.496004
     2  C    0.232909  -0.058594   0.406522   0.051284  -2.812291  -3.384635
     3  O    0.066225  -0.003811   0.060898   0.001571  -0.250954  -0.507364
     4  C   -0.003462  -0.018311   1.104015   0.028759  -2.538767  -2.160919
     5  C   -2.777342  -0.008072  -1.655055  -0.042200   3.436687   1.247070
     6  C    0.694143   0.050060   0.385112   0.020509  -1.007659  -0.326558
     7  C   -0.024098   0.007682  -0.168905  -0.002585   0.424823   0.849873
     8  C    0.106844   0.027814  -0.039931   0.004968  -0.273052  -0.102007
     9  H   -0.000144  -0.001757   0.011906   0.000720   0.008929   0.000998
    10  C   -0.393195  -0.007510  -0.225379  -0.002012   0.296986   0.422739
    11  H    0.006350   0.001728   0.001190   0.000001  -0.003755  -0.001402
    12  H   -0.009632  -0.000558  -0.001978  -0.000007   0.003689   0.005691
    13  C   10.215059   0.467156   1.068720   0.043737  -4.534701   1.204574
    14  H    0.467156   0.450537  -0.050416  -0.006021  -0.079999   0.034106
    15  C    1.068720  -0.050416   9.694813   0.430144  -1.449637  -1.215490
    16  H    0.043737  -0.006021   0.430144   0.450522  -0.216251   0.048702
    17  C   -4.534701  -0.079999  -1.449637  -0.216251  20.584585  -5.035228
    18  C    1.204574   0.034106  -1.215490   0.048702  -5.035228  13.984585
    19  H   -0.152942   0.001007  -0.057773  -0.029359   0.924625  -0.377222
    20  B   -0.112903  -0.007481  -0.201976  -0.005667   0.484341  -0.178240
    21  N   -0.015908   0.000165  -0.011367  -0.000159  -0.003010  -0.030043
    22  C    0.002947   0.000597  -0.002876  -0.000114   0.010322   0.005939
    23  H    0.001464   0.000025   0.000713   0.000009   0.000017  -0.006658
    24  H   -0.000652   0.000017  -0.000914  -0.000027   0.001978   0.003210
    25  H   -0.001954  -0.000814   0.004696   0.000430  -0.031599  -0.003797
    26  C   -0.006092  -0.000022  -0.001429  -0.000005  -0.003042  -0.010028
    27  H   -0.000771  -0.000005  -0.000087  -0.000000   0.000266   0.000910
    28  H    0.001068  -0.000002   0.000168   0.000003  -0.000594  -0.001542
    29  H    0.000478   0.000045   0.000025   0.000001  -0.000036   0.000264
    30  Cl  -0.013529  -0.000614  -0.061980  -0.000584   0.128050   0.299764
    31  Cl  -0.061482  -0.000672  -0.201490  -0.006394   0.326051  -0.052247
              19         20         21         22         23         24
     1  C   -0.016345   0.289845  -0.155432   0.091572   0.019988   0.000328
     2  C   -0.053427  -0.087734  -0.048031  -0.051630   0.014555  -0.012156
     3  O   -0.005986  -0.014178   0.022617  -0.010733   0.000335  -0.000217
     4  C   -0.060385  -0.229279   0.165228  -0.100786   0.003358  -0.011729
     5  C    0.051592   0.041944   0.143021  -0.135395   0.008291  -0.034038
     6  C   -0.022829  -0.061586   0.035989   0.000115   0.004275  -0.000450
     7  C    0.009589   0.023344   0.034763  -0.030791  -0.015818   0.023778
     8  C   -0.004276  -0.020369  -0.056155   0.046467  -0.003926   0.013815
     9  H   -0.000125   0.001235   0.000631  -0.000376   0.000014  -0.000027
    10  C    0.003112   0.037297  -0.479498   0.011764  -0.027195   0.031166
    11  H   -0.000013  -0.000448  -0.001406   0.000969  -0.000562   0.000238
    12  H    0.000021   0.000551  -0.024274  -0.006315   0.001057  -0.001805
    13  C   -0.152942  -0.112903  -0.015908   0.002947   0.001464  -0.000652
    14  H    0.001007  -0.007481   0.000165   0.000597   0.000025   0.000017
    15  C   -0.057773  -0.201976  -0.011367  -0.002876   0.000713  -0.000914
    16  H   -0.029359  -0.005667  -0.000159  -0.000114   0.000009  -0.000027
    17  C    0.924625   0.484341  -0.003010   0.010322   0.000017   0.001978
    18  C   -0.377222  -0.178240  -0.030043   0.005939  -0.006658   0.003210
    19  H    0.567287  -0.029170  -0.000146   0.000263   0.000070   0.000080
    20  B   -0.029170   4.509202   0.008114   0.021014   0.002473   0.001556
    21  N   -0.000146   0.008114   7.072464   0.248553  -0.073698  -0.054204
    22  C    0.000263   0.021014   0.248553   5.452835   0.435267   0.390095
    23  H    0.000070   0.002473  -0.073698   0.435267   0.591215  -0.060545
    24  H    0.000080   0.001556  -0.054204   0.390095  -0.060545   0.574519
    25  H   -0.002291  -0.051382  -0.047830   0.279896  -0.067110  -0.025184
    26  C   -0.000134   0.000978   0.348616  -0.192403  -0.010231  -0.011314
    27  H   -0.000009  -0.000711  -0.063567  -0.008250  -0.007873  -0.000604
    28  H   -0.000007   0.000118  -0.036931  -0.003534   0.018089   0.003110
    29  H    0.000002   0.000284  -0.058780   0.013703   0.000041  -0.001199
    30  Cl   0.005237   0.280151   0.004907  -0.016755  -0.002522   0.000447
    31  Cl   0.080935   0.290301   0.000406  -0.000531  -0.000107   0.000276
              25         26         27         28         29         30
     1  C   -0.175411  -0.054486  -0.006312   0.001609   0.008582  -0.377611
     2  C    0.057443  -0.009572  -0.002987   0.006793  -0.000122  -0.153590
     3  O    0.000432  -0.014929  -0.001522   0.002068   0.000096  -0.007673
     4  C    0.130875   0.096015   0.010322  -0.009353  -0.016290  -0.152887
     5  C    0.249900   0.211151   0.003126   0.011433  -0.003773   0.130442
     6  C    0.019959  -0.048570  -0.005881   0.013609  -0.004217  -0.013199
     7  C   -0.105856   0.115515   0.011457  -0.021071  -0.008559   0.064254
     8  C   -0.047010  -0.323998  -0.021744   0.040799   0.000600  -0.002724
     9  H    0.000579  -0.000811  -0.000028   0.000061  -0.000203   0.000088
    10  C   -0.114353  -0.394051   0.027775  -0.031409   0.016249   0.020682
    11  H   -0.000480   0.000131  -0.000288   0.000959   0.000872  -0.000031
    12  H    0.002248   0.016769   0.007938  -0.013477  -0.008461   0.000243
    13  C   -0.001954  -0.006092  -0.000771   0.001068   0.000478  -0.013529
    14  H   -0.000814  -0.000022  -0.000005  -0.000002   0.000045  -0.000614
    15  C    0.004696  -0.001429  -0.000087   0.000168   0.000025  -0.061980
    16  H    0.000430  -0.000005  -0.000000   0.000003   0.000001  -0.000584
    17  C   -0.031599  -0.003042   0.000266  -0.000594  -0.000036   0.128050
    18  C   -0.003797  -0.010028   0.000910  -0.001542   0.000264   0.299764
    19  H   -0.002291  -0.000134  -0.000009  -0.000007   0.000002   0.005237
    20  B   -0.051382   0.000978  -0.000711   0.000118   0.000284   0.280151
    21  N   -0.047830   0.348616  -0.063567  -0.036931  -0.058780   0.004907
    22  C    0.279896  -0.192403  -0.008250  -0.003534   0.013703  -0.016755
    23  H   -0.067110  -0.010231  -0.007873   0.018089   0.000041  -0.002522
    24  H   -0.025184  -0.011314  -0.000604   0.003110  -0.001199   0.000447
    25  H    0.760921   0.008825   0.013533  -0.006058  -0.005509   0.043275
    26  C    0.008825   5.462848   0.410032   0.381509   0.423322  -0.000589
    27  H    0.013533   0.410032   0.511115  -0.050789  -0.007037  -0.000424
    28  H   -0.006058   0.381509  -0.050789   0.581023  -0.051001   0.000040
    29  H   -0.005509   0.423322  -0.007037  -0.051001   0.535381  -0.000067
    30  Cl   0.043275  -0.000589  -0.000424   0.000040  -0.000067  16.846716
    31  Cl  -0.000722  -0.000022  -0.000013   0.000003  -0.000005  -0.058079
              31
     1  C   -0.131086
     2  C   -0.084379
     3  O    0.001685
     4  C   -0.047395
     5  C    0.044230
     6  C   -0.005229
     7  C    0.007221
     8  C   -0.000678
     9  H    0.000035
    10  C    0.002092
    11  H   -0.000006
    12  H    0.000020
    13  C   -0.061482
    14  H   -0.000672
    15  C   -0.201490
    16  H   -0.006394
    17  C    0.326051
    18  C   -0.052247
    19  H    0.080935
    20  B    0.290301
    21  N    0.000406
    22  C   -0.000531
    23  H   -0.000107
    24  H    0.000276
    25  H   -0.000722
    26  C   -0.000022
    27  H   -0.000013
    28  H    0.000003
    29  H   -0.000005
    30  Cl  -0.058079
    31  Cl  16.918019
 Mulliken charges:
               1
     1  C   -0.761247
     2  C    1.513243
     3  O    0.028786
     4  C    1.470256
     5  C   -1.800780
     6  C   -0.152566
     7  C   -0.418044
     8  C   -0.302871
     9  H    0.174838
    10  C    0.338290
    11  H    0.241497
    12  H    0.193979
    13  C   -0.163800
    14  H    0.193795
    15  C   -0.412616
    16  H    0.253057
    17  C   -0.579588
    18  C   -0.211051
    19  H    0.168620
    20  B    0.008374
    21  N    0.074965
    22  C   -0.451829
    23  H    0.174990
    24  H    0.170453
    25  H    0.114349
    26  C   -0.393984
    27  H    0.182428
    28  H    0.163308
    29  H    0.165316
    30  Cl   0.038566
    31  Cl  -0.020735
 Sum of Mulliken charges =  -0.00000
 Mulliken charges with hydrogens summed into heavy atoms:
               1
     1  C   -0.761247
     2  C    1.513243
     3  O    0.028786
     4  C    1.470256
     5  C   -1.800780
     6  C    0.022272
     7  C   -0.418044
     8  C   -0.061374
    10  C    0.532270
    13  C    0.029995
    15  C   -0.159558
    17  C   -0.410968
    18  C   -0.211051
    20  B    0.008374
    21  N    0.074965
    22  C    0.007963
    26  C    0.117067
    30  Cl   0.038566
    31  Cl  -0.020735
 Electronic spatial extent (au):  <R**2>=          12862.3880
 Charge=             -0.0000 electrons
 Dipole moment (field-independent basis, Debye):
    X=             -0.5837    Y=              2.2678    Z=             -2.2650  Tot=              3.2579
 Quadrupole moment (field-independent basis, Debye-Ang):
   XX=           -127.5062   YY=           -102.6278   ZZ=           -118.2073
   XY=             -3.8455   XZ=             -7.9800   YZ=              5.7408
 Traceless Quadrupole moment (field-independent basis, Debye-Ang):
   XX=            -11.3924   YY=             13.4860   ZZ=             -2.0936
   XY=             -3.8455   XZ=             -7.9800   YZ=              5.7408
 Octapole moment (field-independent basis, Debye-Ang**2):
  XXX=           -677.8596  YYY=           -906.7893  ZZZ=           -303.4530  XYY=           -250.3729
  XXY=           -369.9265  XXZ=           -108.7499  XZZ=           -224.0739  YZZ=           -306.8365
  YYZ=            -41.9169  XYZ=              7.1057
 Hexadecapole moment (field-independent basis, Debye-Ang**3):
 XXXX=          -3731.8757 YYYY=          -9597.9551 ZZZZ=          -3113.1157 XXXY=           -852.7837
 XXXZ=           -684.5664 YYYX=          -1062.7476 YYYZ=           -258.6949 ZZZX=           -744.8474
 ZZZY=           -564.2099 XXYY=          -2453.9644 XXZZ=          -1180.7342 YYZZ=          -2047.5233
 XXYZ=           -154.2183 YYXZ=           -173.6139 ZZXY=           -248.8191
 N-N= 1.590259583722D+03 E-N=-6.986186064016D+03  KE= 1.611193777427D+03
 Breneman (CHELPG) radii used.
 Generate Potential Derived Charges using the Breneman model, NDens= 1.
 Grid spacing= 0.300 Box extension= 2.800
 NStep X,Y,Z=   37     49     44   Total possible points=       79772
 Number of Points to Fit=   18015

 **********************************************************************

            Electrostatic Properties Using The SCF Density.

 **********************************************************************

       Atomic Center    1 is at   2.103734  2.167178  0.212201
       Atomic Center    2 is at   1.913910  2.533357 -1.126289
       Atomic Center    3 is at   1.623281  3.123448  1.046123
       Atomic Center    4 is at   1.260803  3.827601 -1.094211
       Atomic Center    5 is at   1.121102  4.128444  0.256356
       Atomic Center    6 is at   0.771341  4.700828 -2.066647
       Atomic Center    7 is at   0.510559  5.294504  0.740661
       Atomic Center    8 is at   0.153479  5.855361 -1.623015
       Atomic Center    9 is at   0.863805  4.478329 -3.122583
       Atomic Center   10 is at   0.031324  6.149011 -0.258740
       Atomic Center   11 is at  -0.243686  6.563380 -2.341497
       Atomic Center   12 is at  -0.450440  7.075640  0.023895
       Atomic Center   13 is at   2.334827  1.680724 -2.138914
       Atomic Center   14 is at   2.195029  1.947484 -3.180407
       Atomic Center   15 is at   2.937742  0.479086 -1.787415
       Atomic Center   16 is at   3.274236 -0.202366 -2.559284
       Atomic Center   17 is at   3.114558  0.137911 -0.449882
       Atomic Center   18 is at   2.706877  0.966967  0.612372
       Atomic Center   19 is at   3.588555 -0.807574 -0.215533
       Atomic Center   20 is at   2.934589  0.537803  2.077490
       Atomic Center   21 is at   0.356043  5.530144  2.108756
       Atomic Center   22 is at   1.556878  5.434547  2.932875
       Atomic Center   23 is at   2.218114  6.302291  2.785057
       Atomic Center   24 is at   1.262167  5.399317  3.983572
       Atomic Center   25 is at   2.109830  4.525938  2.708584
       Atomic Center   26 is at  -0.489080  6.644838  2.488341
       Atomic Center   27 is at  -0.659264  6.597786  3.565303
       Atomic Center   28 is at  -0.040808  7.624786  2.256917
       Atomic Center   29 is at  -1.457590  6.574632  1.989994
       Atomic Center   30 is at   2.512484  1.535293  3.465660
       Atomic Center   31 is at   3.665024 -1.031795  2.453544
   18015 points will be used for fitting atomic charges
 Fitting point charges to electrostatic potential
 Charges from ESP fit, RMS=   0.00485 RRMS=   0.40647:
 ESP charges:
               1
     1  C    0.265188
     2  C    0.011129
     3  O   -0.261184
     4  C    0.064060
     5  C    0.015714
     6  C   -0.242283
     7  C    0.350216
     8  C   -0.125022
     9  H    0.148177
    10  C   -0.249081
    11  H    0.120823
    12  H    0.145551
    13  C   -0.138592
    14  H    0.139982
    15  C   -0.117555
    16  H    0.112663
    17  C   -0.115367
    18  C   -0.179683
    19  H    0.119434
    20  B    0.442235
    21  N   -0.420970
    22  C    0.094360
    23  H   -0.013705
    24  H    0.072574
    25  H    0.042553
    26  C   -0.018835
    27  H    0.068519
    28  H    0.044508
    29  H    0.045851
    30  Cl  -0.206010
    31  Cl  -0.215250
 Sum of ESP charges =  -0.00000
 ESP charges with hydrogens summed into heavy atoms:
               1
     1  C    0.265188
     2  C    0.011129
     3  O   -0.261184
     4  C    0.064060
     5  C    0.015714
     6  C   -0.094106
     7  C    0.350216
     8  C   -0.004199
    10  C   -0.103531
    13  C    0.001390
    15  C   -0.004892
    17  C    0.004067
    18  C   -0.179683
    20  B    0.442235
    21  N   -0.420970
    22  C    0.195782
    26  C    0.140043
    30  Cl  -0.206010
    31  Cl  -0.215250
 Charge=  -0.00000 Dipole=    -0.5941     2.4206    -2.4020 Tot=     3.4615
 -----------------------------------------------------------------

              Electrostatic Properties (Atomic Units)

 -----------------------------------------------------------------
    Center     Electric         -------- Electric Field --------
               Potential          X             Y             Z
 -----------------------------------------------------------------
    1 Atom    -14.695004
    2 Atom    -14.751868
    3 Atom    -22.296888
    4 Atom    -14.757550
    5 Atom    -14.712590
    6 Atom    -14.768135
    7 Atom    -14.722786
    8 Atom    -14.768799
    9 Atom     -1.094077
   10 Atom    -14.769893
   11 Atom     -1.101635
   12 Atom     -1.096719
   13 Atom    -14.744943
   14 Atom     -1.078498
   15 Atom    -14.759286
   16 Atom     -1.090411
   17 Atom    -14.751058
   18 Atom    -14.759842
   19 Atom     -1.093129
   20 Atom    -11.353290
   21 Atom    -18.372627
   22 Atom    -14.751730
   23 Atom     -1.118676
   24 Atom     -1.113592
   25 Atom     -1.118142
   26 Atom    -14.743410
   27 Atom     -1.105176
   28 Atom     -1.109751
   29 Atom     -1.105874
   30 Atom    -64.409945
   31 Atom    -64.407981
 -----------------------------------------------------------------
 Unable to Open any file for archive entry.
 1\1\GINC-IRENE4625\SP\RwB97XD\GenECP\C14H12B1Cl2N1O1\PENASFRA\11-Apr-2
 024\0\\# wb97xd/genecp scrf=(solvent=toluene,pcm) nosymm pop=(chelpg) 
 scfcyc=300\\cl_dibenzofuran_chelpg\\0,1\C,0,2.103734,2.167178,0.212201
 \C,0,1.91391,2.533357,-1.126289\O,0,1.623281,3.123448,1.046123\C,0,1.2
 60803,3.827601,-1.094211\C,0,1.121102,4.128444,0.256356\C,0,0.771341,4
 .700828,-2.066647\C,0,0.510559,5.294504,0.740661\C,0,0.153479,5.855361
 ,-1.623015\H,0,0.863805,4.478329,-3.122583\C,0,0.031324,6.149011,-0.25
 874\H,0,-0.243686,6.56338,-2.341497\H,0,-0.45044,7.07564,0.023895\C,0,
 2.334827,1.680724,-2.138914\H,0,2.195029,1.947484,-3.180407\C,0,2.9377
 42,0.479086,-1.787415\H,0,3.274236,-0.202366,-2.559284\C,0,3.114558,0.
 137911,-0.449882\C,0,2.706877,0.966967,0.612372\H,0,3.588555,-0.807574
 ,-0.215533\B,0,2.934589,0.537803,2.07749\N,0,0.356043,5.530144,2.10875
 6\C,0,1.556878,5.434547,2.932875\H,0,2.218114,6.302291,2.785057\H,0,1.
 262167,5.399317,3.983572\H,0,2.10983,4.525938,2.708584\C,0,-0.48908,6.
 644838,2.488341\H,0,-0.659264,6.597786,3.565303\H,0,-0.040808,7.624786
 ,2.256917\H,0,-1.45759,6.574632,1.989994\Cl,0,2.512484,1.535293,3.4656
 6\Cl,0,3.665024,-1.031795,2.453544\\Version=AS64L-G16RevC.02\HF=-1615.
 9975241\RMSD=3.600e-09\Dipole=-0.2296295,0.8922071,-0.8911312\Quadrupo
 le=-8.4699833,10.0265058,-1.5565225,-2.8590339,-5.9329124,4.2681283\PG
 =C01 [X(C14H12B1Cl2N1O1)]\\@
 The archive entry for this job was punched.


 ... FOR AFTERWARDS A MAN FINDS PLEASURE IN HIS PAINS,
 WHEN HE HAS SUFFERED LONG AND WANDERED FAR.

                                    -- HOMER
 Job cpu time:       0 days  1 hours 29 minutes 22.7 seconds.
 Elapsed time:       0 days  0 hours  0 minutes 55.7 seconds.
 File lengths (MBytes):  RWF=    247 Int=      0 D2E=      0 Chk=     17 Scr=      1
 Normal termination of Gaussian 16 at Thu Apr 11 16:29:51 2024.
