 Entering Gaussian System, Link 0=/ccc/products/gaussian-16-C.02/system/default/g16/g16
 Input=cl_metriazole_chelpg.gjf
 Output=cl_metriazole_chelpg.log
 Initial command:
 /ccc/products/gaussian-16-C.02/system/default/g16/l1.exe "/ccc/scratch/cont003/gen7343/penasfra/flp/b-n_flp/cl_metriazole/Reactant/Gau-61646.inp" -scrdir="/ccc/scratch/cont003/gen7343/penasfra/flp/b-n_flp/cl_metriazole/Reactant/"
 Entering Link 1 = /ccc/products/gaussian-16-C.02/system/default/g16/l1.exe PID=     61695.
  
 Copyright (c) 1988-2021, Gaussian, Inc.  All Rights Reserved.
  
 This is part of the Gaussian(R) 16 program.  It is based on
 the Gaussian(R) 09 system (copyright 2009, Gaussian, Inc.),
 the Gaussian(R) 03 system (copyright 2003, Gaussian, Inc.),
 the Gaussian(R) 98 system (copyright 1998, Gaussian, Inc.),
 the Gaussian(R) 94 system (copyright 1995, Gaussian, Inc.),
 the Gaussian 92(TM) system (copyright 1992, Gaussian, Inc.),
 the Gaussian 90(TM) system (copyright 1990, Gaussian, Inc.),
 the Gaussian 88(TM) system (copyright 1988, Gaussian, Inc.),
 the Gaussian 86(TM) system (copyright 1986, Carnegie Mellon
 University), and the Gaussian 82(TM) system (copyright 1983,
 Carnegie Mellon University). Gaussian is a federally registered
 trademark of Gaussian, Inc.
  
 This software contains proprietary and confidential information,
 including trade secrets, belonging to Gaussian, Inc.
  
 This software is provided under written license and may be
 used, copied, transmitted, or stored only in accord with that
 written license.
  
 The following legend is applicable only to US Government
 contracts under FAR:
  
                    RESTRICTED RIGHTS LEGEND
  
 Use, reproduction and disclosure by the US Government is
 subject to restrictions as set forth in subparagraphs (a)
 and (c) of the Commercial Computer Software - Restricted
 Rights clause in FAR 52.227-19.
  
 Gaussian, Inc.
 340 Quinnipiac St., Bldg. 40, Wallingford CT 06492
  
  
 ---------------------------------------------------------------
 Warning -- This program may not be used in any manner that
 competes with the business of Gaussian, Inc. or will provide
 assistance to any competitor of Gaussian, Inc.  The licensee
 of this program is prohibited from giving any competitor of
 Gaussian, Inc. access to this program.  By using this program,
 the user acknowledges that Gaussian, Inc. is engaged in the
 business of creating and licensing software in the field of
 computational chemistry and represents and warrants to the
 licensee that it is not a competitor of Gaussian, Inc. and that
 it will not use this program in any manner prohibited above.
 ---------------------------------------------------------------
  

 Cite this work as:
 Gaussian 16, Revision C.02,
 M. J. Frisch, G. W. Trucks, H. B. Schlegel, G. E. Scuseria, 
 M. A. Robb, J. R. Cheeseman, G. Scalmani, V. Barone, 
 G. A. Petersson, H. Nakatsuji, X. Li, M. Caricato, A. V. Marenich, 
 J. Bloino, B. G. Janesko, R. Gomperts, B. Mennucci, H. P. Hratchian, 
 J. V. Ortiz, A. F. Izmaylov, J. L. Sonnenberg, D. Williams-Young, 
 F. Ding, F. Lipparini, F. Egidi, J. Goings, B. Peng, A. Petrone, 
 T. Henderson, D. Ranasinghe, V. G. Zakrzewski, J. Gao, N. Rega, 
 G. Zheng, W. Liang, M. Hada, M. Ehara, K. Toyota, R. Fukuda, 
 J. Hasegawa, M. Ishida, T. Nakajima, Y. Honda, O. Kitao, H. Nakai, 
 T. Vreven, K. Throssell, J. A. Montgomery, Jr., J. E. Peralta, 
 F. Ogliaro, M. J. Bearpark, J. J. Heyd, E. N. Brothers, K. N. Kudin, 
 V. N. Staroverov, T. A. Keith, R. Kobayashi, J. Normand, 
 K. Raghavachari, A. P. Rendell, J. C. Burant, S. S. Iyengar, 
 J. Tomasi, M. Cossi, J. M. Millam, M. Klene, C. Adamo, R. Cammi, 
 J. W. Ochterski, R. L. Martin, K. Morokuma, O. Farkas, 
 J. B. Foresman, and D. J. Fox, Gaussian, Inc., Wallingford CT, 2019.
 
 ******************************************
 Gaussian 16:  AS64L-G16RevC.02  7-Dec-2021
                 8-Apr-2024 
 ******************************************
 %nprocshared=128
 Will use up to  128 processors via shared memory.
 %mem=30GB
 %chk=cl_metriazole_chelpg.chk
 ----------------------------------------------------------------------
 # wb97xd/genecp scrf=(solvent=toluene,pcm) nosymm pop=(chelpg) scfcyc=
 300
 ----------------------------------------------------------------------
 1/38=1,172=1/1;
 2/12=2,15=1,17=6,18=5,40=1/2;
 3/5=7,11=2,16=1,17=8,25=1,30=1,70=2201,72=13,74=-58/1,2,3;
 4//1;
 5/5=2,7=300,38=5,53=13/2;
 6/7=2,8=2,9=2,10=2,15=8,20=3,28=1/1,2;
 99/5=1,9=1/99;
 --------------------
 cl_metriazole_chelpg
 --------------------
 Symbolic Z-matrix:
 Charge =  0 Multiplicity = 1
 C                     2.60608   1.65014   1.15736 
 H                     2.66707   2.19558   2.08474 
 C                     3.14099   0.43774   0.75793 
 N                     1.91864   2.09374   0.10076 
 N                     2.00903   1.21825  -0.92313 
 N                     2.73325   0.2309   -0.53725 
 B                     4.01752  -0.53687   1.54517 
 C                     1.19006   3.33873  -0.06462 
 H                     1.85372   4.11429  -0.44797 
 H                     0.38065   3.16653  -0.77087 
 H                     0.78091   3.64166   0.89763 
 Cl                    4.47024  -0.16049   3.21172 
 Cl                    4.59738  -2.03269   0.84071 
 
                          Input orientation:                          
 ---------------------------------------------------------------------
 Center     Atomic      Atomic             Coordinates (Angstroms)
 Number     Number       Type             X           Y           Z
 ---------------------------------------------------------------------
      1          6           0        2.606080    1.650137    1.157365
      2          1           0        2.667070    2.195583    2.084735
      3          6           0        3.140991    0.437735    0.757930
      4          7           0        1.918636    2.093735    0.100756
      5          7           0        2.009031    1.218253   -0.923127
      6          7           0        2.733251    0.230895   -0.537246
      7          5           0        4.017521   -0.536866    1.545165
      8          6           0        1.190059    3.338728   -0.064616
      9          1           0        1.853715    4.114288   -0.447970
     10          1           0        0.380650    3.166525   -0.770874
     11          1           0        0.780905    3.641663    0.897630
     12         17           0        4.470243   -0.160493    3.211721
     13         17           0        4.597378   -2.032688    0.840708
 ---------------------------------------------------------------------
                    Distance matrix (angstroms):
                    1          2          3          4          5
     1  C    0.000000
     2  H    1.077611   0.000000
     3  C    1.384051   2.252785   0.000000
     4  N    1.336331   2.122899   2.160640   0.000000
     5  N    2.207133   3.230391   2.171749   1.350176   0.000000
     6  N    2.214075   3.277066   1.373505   2.130919   1.283851
     7  B    2.631641   3.095340   1.529016   3.662198   3.634135
     8  C    2.519860   2.847464   3.591445   1.451957   2.429850
     9  H    3.035654   3.279873   4.077783   2.094743   2.938863
    10  H    3.312111   3.784831   4.171693   2.067854   2.543731
    11  H    2.713835   2.656687   3.981793   2.079789   3.270530
    12  Cl   3.312682   3.173740   2.854098   4.611978   5.005544
    13  Cl   4.198659   4.811649   2.868955   4.974993   4.514341
                    6          7          8          9         10
     6  N    0.000000
     7  B    2.564223   0.000000
     8  C    3.501920   5.060253   0.000000
     9  H    3.982750   5.503442   1.090364   0.000000
    10  H    3.769249   5.683834   1.087933   1.781135   0.000000
    11  H    4.183762   5.324950   1.088620   1.784639   1.780412
    12  Cl   4.150311   1.767491   5.808489   6.205909   6.607184
    13  Cl   3.239990   1.752135   6.425072   6.853736   6.885478
                   11         12         13
    11  H    0.000000
    12  Cl   5.781230   0.000000
    13  Cl   6.838638   3.023736   0.000000
 Symmetry turned off by external request.
 Stoichiometry    C3H4BCl2N3
 Framework group  C1[X(C3H4BCl2N3)]
 Deg. of freedom    33
 Full point group                 C1      NOp   1
 Rotational constants (GHZ):           2.2300632           0.6790463           0.5222880
 General basis read from cards:  (5D, 7F)
 ======================================================================================================
                                       Pseudopotential Parameters
 ======================================================================================================
  Center     Atomic      Valence      Angular      Power
  Number     Number     Electrons     Momentum     of R      Exponent        Coefficient   SO-Coeffient
 ======================================================================================================
    1          6
                                   No pseudopotential on this center.
    2          1
                                   No pseudopotential on this center.
    3          6
                                   No pseudopotential on this center.
    4          7
                                   No pseudopotential on this center.
    5          7
                                   No pseudopotential on this center.
    6          7
                                   No pseudopotential on this center.
    7          5
                                   No pseudopotential on this center.
    8          6
                                   No pseudopotential on this center.
    9          1
                                   No pseudopotential on this center.
   10          1
                                   No pseudopotential on this center.
   11          1
                                   No pseudopotential on this center.
   12         17
                                   No pseudopotential on this center.
   13         17
                                   No pseudopotential on this center.
 ======================================================================================================
   242 basis functions,   394 primitive gaussians,   251 cartesian basis functions
    41 alpha electrons       41 beta electrons
       nuclear repulsion energy       545.5208316708 Hartrees.
 NAtoms=   13 NActive=   13 NUniq=   13 SFac= 1.00D+00 NAtFMM=   60 NAOKFM=F Big=F
 Integral buffers will be    131072 words long.
 Raffenetti 2 integral format.
 Two-electron integral symmetry is turned off.
 Nuclear repulsion after empirical dispersion term =      545.5150466282 Hartrees.
 ------------------------------------------------------------------------------
 Polarizable Continuum Model (PCM)
 =================================
 Model                : PCM.
 Atomic radii         : UFF (Universal Force Field).
 Polarization charges : Total charges.
 Charge compensation  : None.
 Solution method      : On-the-fly selection.
 Cavity type          : Scaled VdW (van der Waals Surface) (Alpha=1.100).
 Cavity algorithm     : GePol (No added spheres)
                        Default sphere list used, NSphG=   13.
                        Lebedev-Laikov grids with approx.  5.0 points / Ang**2.
                        Smoothing algorithm: York/Karplus (Gamma=1.0000).
                        Polarization charges: spherical gaussians, with
                                              point-specific exponents (IZeta= 3).
                        Self-potential: point-specific (ISelfS= 7).
                        Self-field    : sphere-specific E.n sum rule (ISelfD= 2).
 Solvent              : Toluene, Eps=   2.374100 Eps(inf)=   2.238315
 ------------------------------------------------------------------------------
 Spheres list:
 ISph  on   Nord     Re0    Alpha      Xe            Ye            Ze
    1   C      1    1.9255  1.100      2.606080      1.650137      1.157365
    2   H      2    1.4430  1.100      2.667070      2.195583      2.084735
    3   C      3    1.9255  1.100      3.140991      0.437735      0.757930
    4   N      4    1.8300  1.100      1.918636      2.093735      0.100756
    5   N      5    1.8300  1.100      2.009031      1.218253     -0.923127
    6   N      6    1.8300  1.100      2.733251      0.230895     -0.537246
    7   B      7    2.0415  1.100      4.017521     -0.536866      1.545165
    8   C      8    1.9255  1.100      1.190059      3.338728     -0.064616
    9   H      9    1.4430  1.100      1.853715      4.114288     -0.447970
   10   H     10    1.4430  1.100      0.380650      3.166525     -0.770874
   11   H     11    1.4430  1.100      0.780905      3.641663      0.897630
   12  Cl     12    1.9735  1.100      4.470243     -0.160493      3.211721
   13  Cl     13    1.9735  1.100      4.597378     -2.032688      0.840708
 ------------------------------------------------------------------------------
 One-electron integrals computed using PRISM.
   1 Symmetry operations used in ECPInt.
 ECPInt:  NShTT=    3916 NPrTT=   14561 LenC2=    3651 LenP2D=    9866.
 LDataN:  DoStor=T MaxTD1= 4 Len=   56
 NBasis=   242 RedAO= T EigKep=  7.10D-06  NBF=   242
 NBsUse=   242 1.00D-06 EigRej= -1.00D+00 NBFU=   242
 ExpMin= 3.15D-02 ExpMax= 1.06D+05 ExpMxC= 3.62D+03 IAcc=3 IRadAn=         5 AccDes= 0.00D+00
 Harris functional with IExCor= 4639 and IRadAn=       5 diagonalized for initial guess.
 HarFok:  IExCor= 4639 AccDes= 0.00D+00 IRadAn=         5 IDoV= 1 UseB2=F ITyADJ=14
 ICtDFT=  3500011 ScaDFX=  1.000000  1.000000  1.000000  1.000000
 FoFCou: FMM=F IPFlag=           0 FMFlag=      100000 FMFlg1=           0
         NFxFlg=           0 DoJE=T BraDBF=F KetDBF=T FulRan=T
         wScrn=  0.000000 ICntrl=       500 IOpCl=  0 I1Cent=   200000004 NGrid=           0
         NMat0=    1 NMatS0=      1 NMatT0=    0 NMatD0=    1 NMtDS0=    0 NMtDT0=    0
 Symmetry not used in FoFCou.
 Requested convergence on RMS density matrix=1.00D-08 within 300 cycles.
 Requested convergence on MAX density matrix=1.00D-06.
 Requested convergence on             energy=1.00D-06.
 No special actions if energy rises.
 Inv3:  Mode=1 IEnd=     5532492.
 Iteration    1 A*A^-1 deviation from unit magnitude is 4.22D-15 for   1323.
 Iteration    1 A*A^-1 deviation from orthogonality  is 2.07D-15 for   1354    619.
 Iteration    1 A^-1*A deviation from unit magnitude is 4.22D-15 for   1358.
 Iteration    1 A^-1*A deviation from orthogonality  is 3.66D-15 for    753    721.
 Error on total polarization charges =  0.01029
 SCF Done:  E(RwB97XD) =  -1226.28876053     A.U. after   15 cycles
            NFock= 15  Conv=0.59D-08     -V/T= 2.0025

 **********************************************************************

            Population analysis using the SCF Density.

 **********************************************************************

 Alpha  occ. eigenvalues -- -101.73033-101.72623 -14.54917 -14.51024 -14.47650
 Alpha  occ. eigenvalues --  -10.35702 -10.34698 -10.31699  -9.60073  -9.59665
 Alpha  occ. eigenvalues --   -7.34729  -7.34330  -7.34196  -7.34039  -7.33801
 Alpha  occ. eigenvalues --   -7.33608  -6.96026  -1.23194  -1.04611  -0.97038
 Alpha  occ. eigenvalues --   -0.93172  -0.92662  -0.85539  -0.75284  -0.70887
 Alpha  occ. eigenvalues --   -0.65432  -0.60803  -0.60222  -0.56101  -0.53708
 Alpha  occ. eigenvalues --   -0.52619  -0.51798  -0.50547  -0.46865  -0.44839
 Alpha  occ. eigenvalues --   -0.41785  -0.41478  -0.40163  -0.39709  -0.37413
 Alpha  occ. eigenvalues --   -0.36400
 Alpha virt. eigenvalues --   -0.00560   0.03596   0.04206   0.05422   0.06417
 Alpha virt. eigenvalues --    0.07288   0.07846   0.08223   0.08707   0.09661
 Alpha virt. eigenvalues --    0.11408   0.12530   0.13104   0.13243   0.14572
 Alpha virt. eigenvalues --    0.14882   0.15243   0.15843   0.16308   0.16371
 Alpha virt. eigenvalues --    0.17306   0.17836   0.18237   0.18889   0.19352
 Alpha virt. eigenvalues --    0.19454   0.20194   0.20690   0.21150   0.21395
 Alpha virt. eigenvalues --    0.22461   0.23441   0.24121   0.24846   0.24949
 Alpha virt. eigenvalues --    0.25937   0.26230   0.26362   0.28820   0.29948
 Alpha virt. eigenvalues --    0.30732   0.31349   0.32167   0.33064   0.33600
 Alpha virt. eigenvalues --    0.35092   0.35570   0.36095   0.37171   0.39332
 Alpha virt. eigenvalues --    0.39727   0.41271   0.44972   0.46376   0.47764
 Alpha virt. eigenvalues --    0.49405   0.50625   0.51970   0.53227   0.53991
 Alpha virt. eigenvalues --    0.54448   0.55040   0.57282   0.57611   0.59184
 Alpha virt. eigenvalues --    0.62105   0.63565   0.64204   0.64257   0.66081
 Alpha virt. eigenvalues --    0.67841   0.68613   0.70145   0.72393   0.72755
 Alpha virt. eigenvalues --    0.76084   0.77251   0.80884   0.82379   0.85909
 Alpha virt. eigenvalues --    0.88473   0.89770   0.90761   0.91768   0.91927
 Alpha virt. eigenvalues --    0.93198   0.93936   0.95008   0.95736   0.96648
 Alpha virt. eigenvalues --    0.97370   0.98341   1.00468   1.01007   1.03104
 Alpha virt. eigenvalues --    1.04407   1.05636   1.08558   1.10071   1.12814
 Alpha virt. eigenvalues --    1.14391   1.14779   1.21518   1.22684   1.26355
 Alpha virt. eigenvalues --    1.32805   1.36612   1.36891   1.38990   1.39602
 Alpha virt. eigenvalues --    1.44396   1.49455   1.50568   1.54162   1.55393
 Alpha virt. eigenvalues --    1.56365   1.60557   1.61769   1.63980   1.66559
 Alpha virt. eigenvalues --    1.67673   1.68480   1.75577   1.77653   1.82153
 Alpha virt. eigenvalues --    1.83085   1.85550   1.94030   1.97098   1.98136
 Alpha virt. eigenvalues --    2.01730   2.11117   2.12382   2.15262   2.18907
 Alpha virt. eigenvalues --    2.20153   2.24249   2.35056   2.35907   2.37419
 Alpha virt. eigenvalues --    2.37944   2.38718   2.40382   2.41988   2.48207
 Alpha virt. eigenvalues --    2.49596   2.51139   2.52880   2.55565   2.58922
 Alpha virt. eigenvalues --    2.61270   2.64044   2.65345   2.67393   2.72296
 Alpha virt. eigenvalues --    2.73721   2.77960   2.81440   2.82324   2.83687
 Alpha virt. eigenvalues --    2.87641   2.89643   3.01433   3.04604   3.07016
 Alpha virt. eigenvalues --    3.16493   3.22471   3.27504   3.47971   3.62408
 Alpha virt. eigenvalues --    3.70977   3.76660   3.79019   3.86389   3.90620
 Alpha virt. eigenvalues --    4.02303   4.08793   4.11328   4.13642   4.27417
 Alpha virt. eigenvalues --    4.69480   4.91337   5.08570   5.73290   9.85503
 Alpha virt. eigenvalues --    9.99990  14.51998  23.89260  24.04363  24.22078
 Alpha virt. eigenvalues --   25.95888  26.05831  26.08119  26.23973  26.45843
 Alpha virt. eigenvalues --   26.59998  35.53657  35.62231  35.76915 215.93272
 Alpha virt. eigenvalues --  216.09761
          Condensed to atoms (all electrons):
               1          2          3          4          5          6
     1  C    8.263271   0.464312  -1.958803   0.042572  -0.157044  -0.087310
     2  H    0.464312   0.463554  -0.128474  -0.068582   0.007768   0.013811
     3  C   -1.958803  -0.128474   8.469907  -0.289490   0.583351  -0.097319
     4  N    0.042572  -0.068582  -0.289490   6.985871  -0.067061   0.083794
     5  N   -0.157044   0.007768   0.583351  -0.067061   7.016110  -0.096456
     6  N   -0.087310   0.013811  -0.097319   0.083794  -0.096456   7.101511
     7  B   -0.062263  -0.005509  -0.045253   0.069478  -0.214870   0.156036
     8  C   -0.154966  -0.005111   0.024991   0.133096   0.002060  -0.017977
     9  H   -0.027564  -0.001344   0.008292  -0.007426  -0.027850   0.002974
    10  H    0.005092   0.001028  -0.009923  -0.080144   0.056129  -0.007745
    11  H    0.004517  -0.021237   0.032650  -0.028613  -0.012365  -0.001246
    12  Cl  -0.038936   0.038520  -0.152585   0.005892  -0.020564   0.021708
    13  Cl   0.088948   0.005931  -0.160519   0.009446  -0.064215   0.049164
               7          8          9         10         11         12
     1  C   -0.062263  -0.154966  -0.027564   0.005092   0.004517  -0.038936
     2  H   -0.005509  -0.005111  -0.001344   0.001028  -0.021237   0.038520
     3  C   -0.045253   0.024991   0.008292  -0.009923   0.032650  -0.152585
     4  N    0.069478   0.133096  -0.007426  -0.080144  -0.028613   0.005892
     5  N   -0.214870   0.002060  -0.027850   0.056129  -0.012365  -0.020564
     6  N    0.156036  -0.017977   0.002974  -0.007745  -0.001246   0.021708
     7  B    4.403146   0.001025   0.001408  -0.002458  -0.002624   0.302186
     8  C    0.001025   5.192102   0.401335   0.411069   0.383542  -0.003266
     9  H    0.001408   0.401335   0.492522  -0.030038  -0.034033   0.000119
    10  H   -0.002458   0.411069  -0.030038   0.473758  -0.026540  -0.000384
    11  H   -0.002624   0.383542  -0.034033  -0.026540   0.522329  -0.001418
    12  Cl   0.302186  -0.003266   0.000119  -0.000384  -0.001418  16.986312
    13  Cl   0.346152  -0.000976   0.000041  -0.000082  -0.000224  -0.119325
              13
     1  C    0.088948
     2  H    0.005931
     3  C   -0.160519
     4  N    0.009446
     5  N   -0.064215
     6  N    0.049164
     7  B    0.346152
     8  C   -0.000976
     9  H    0.000041
    10  H   -0.000082
    11  H   -0.000224
    12  Cl  -0.119325
    13  Cl  16.792996
 Mulliken charges:
               1
     1  C   -0.381825
     2  H    0.235333
     3  C   -0.276825
     4  N    0.211167
     5  N   -0.004993
     6  N   -0.120945
     7  B    0.053546
     8  C   -0.366925
     9  H    0.221565
    10  H    0.210237
    11  H    0.185263
    12  Cl  -0.018259
    13  Cl   0.052661
 Sum of Mulliken charges =  -0.00000
 Mulliken charges with hydrogens summed into heavy atoms:
               1
     1  C   -0.146492
     3  C   -0.276825
     4  N    0.211167
     5  N   -0.004993
     6  N   -0.120945
     7  B    0.053546
     8  C    0.250140
    12  Cl  -0.018259
    13  Cl   0.052661
 Electronic spatial extent (au):  <R**2>=           5408.6805
 Charge=              0.0000 electrons
 Dipole moment (field-independent basis, Debye):
    X=             -2.3301    Y=              5.7101    Z=              2.1951  Tot=              6.5462
 Quadrupole moment (field-independent basis, Debye-Ang):
   XX=            -77.4968   YY=            -49.8324   ZZ=            -69.6011
   XY=             10.9240   XZ=              2.2318   YZ=              4.6949
 Traceless Quadrupole moment (field-independent basis, Debye-Ang):
   XX=            -11.8534   YY=             15.8111   ZZ=             -3.9577
   XY=             10.9240   XZ=              2.2318   YZ=              4.6949
 Octapole moment (field-independent basis, Debye-Ang**2):
  XXX=           -697.1195  YYY=            -14.8049  ZZZ=           -189.1649  XYY=           -195.4712
  XXY=              6.3371  XXZ=            -72.2627  XZZ=           -231.7657  YZZ=            -16.6746
  YYZ=            -57.7208  XYZ=             13.8863
 Hexadecapole moment (field-independent basis, Debye-Ang**3):
 XXXX=          -5107.9822 YYYY=           -983.0850 ZZZZ=          -1127.1758 XXXY=            227.7004
 XXXZ=           -927.1589 YYYX=            203.6279 YYYZ=             95.9299 ZZZX=           -857.6927
 ZZZY=            107.6771 XXYY=           -988.6559 XXZZ=          -1075.7576 YYZZ=           -369.5122
 XXYZ=             73.6535 YYXZ=           -275.0531 ZZXY=             66.2224
 N-N= 5.455150466282D+02 E-N=-3.991503871590D+03  KE= 1.223202113590D+03
 Breneman (CHELPG) radii used.
 Generate Potential Derived Charges using the Breneman model, NDens= 1.
 Grid spacing= 0.300 Box extension= 2.800
 NStep X,Y,Z=   34     41     34   Total possible points=       47396
 Number of Points to Fit=    9782

 **********************************************************************

            Electrostatic Properties Using The SCF Density.

 **********************************************************************

       Atomic Center    1 is at   2.606080  1.650137  1.157365
       Atomic Center    2 is at   2.667070  2.195583  2.084735
       Atomic Center    3 is at   3.140991  0.437735  0.757930
       Atomic Center    4 is at   1.918636  2.093735  0.100756
       Atomic Center    5 is at   2.009031  1.218253 -0.923127
       Atomic Center    6 is at   2.733251  0.230895 -0.537246
       Atomic Center    7 is at   4.017521 -0.536866  1.545165
       Atomic Center    8 is at   1.190059  3.338728 -0.064616
       Atomic Center    9 is at   1.853715  4.114288 -0.447970
       Atomic Center   10 is at   0.380650  3.166525 -0.770874
       Atomic Center   11 is at   0.780905  3.641663  0.897630
       Atomic Center   12 is at   4.470243 -0.160493  3.211721
       Atomic Center   13 is at   4.597378 -2.032688  0.840708
    9782 points will be used for fitting atomic charges
 Fitting point charges to electrostatic potential
 Charges from ESP fit, RMS=   0.00500 RRMS=   0.18553:
 ESP charges:
               1
     1  C   -0.418963
     2  H    0.194794
     3  C    0.309020
     4  N    0.625699
     5  N   -0.326985
     6  N   -0.352660
     7  B    0.264953
     8  C   -0.451100
     9  H    0.166389
    10  H    0.144584
    11  H    0.174474
    12  Cl  -0.170450
    13  Cl  -0.159756
 Sum of ESP charges =   0.00000
 ESP charges with hydrogens summed into heavy atoms:
               1
     1  C   -0.224169
     3  C    0.309020
     4  N    0.625699
     5  N   -0.326985
     6  N   -0.352660
     7  B    0.264953
     8  C    0.034347
    12  Cl  -0.170450
    13  Cl  -0.159756
 Charge=   0.00000 Dipole=    -2.3589     5.6841     2.0999 Tot=     6.5026
 -----------------------------------------------------------------

              Electrostatic Properties (Atomic Units)

 -----------------------------------------------------------------
    Center     Electric         -------- Electric Field --------
               Potential          X             Y             Z
 -----------------------------------------------------------------
    1 Atom    -14.697988
    2 Atom     -1.024973
    3 Atom    -14.747811
    4 Atom    -18.272763
    5 Atom    -18.339923
    6 Atom    -18.375490
    7 Atom    -11.350774
    8 Atom    -14.693586
    9 Atom     -1.060311
   10 Atom     -1.060719
   11 Atom     -1.049990
   12 Atom    -64.398960
   13 Atom    -64.410383
 -----------------------------------------------------------------
 Unable to Open any file for archive entry.
 1\1\GINC-IRENE5668\SP\RwB97XD\GenECP\C3H4B1Cl2N3\PENASFRA\08-Apr-2024\
 0\\# wb97xd/genecp scrf=(solvent=toluene,pcm) nosymm pop=(chelpg) scfc
 yc=300\\cl_metriazole_chelpg\\0,1\C,0,2.60608,1.650137,1.157365\H,0,2.
 66707,2.195583,2.084735\C,0,3.140991,0.437735,0.75793\N,0,1.918636,2.0
 93735,0.100756\N,0,2.009031,1.218253,-0.923127\N,0,2.733251,0.230895,-
 0.537246\B,0,4.017521,-0.536866,1.545165\C,0,1.190059,3.338728,-0.0646
 16\H,0,1.853715,4.114288,-0.44797\H,0,0.38065,3.166525,-0.770874\H,0,0
 .780905,3.641663,0.89763\Cl,0,4.470243,-0.160493,3.211721\Cl,0,4.59737
 8,-2.032688,0.840708\\Version=AS64L-G16RevC.02\HF=-1226.2887605\RMSD=5
 .946e-09\Dipole=-0.9167382,2.2465165,0.8636174\Quadrupole=-8.8127159,1
 1.7551331,-2.9424172,8.121734,1.6593232,3.4905385\PG=C01 [X(C3H4B1Cl2N
 3)]\\@
 The archive entry for this job was punched.


 10 WHATSOEVER THY HAND FINDETH TO DO, DO IT WITH THY  
 MIGHT. FOR THERE IS NO WORK, NOR DEVICE, NOR KNOWLEDGE, NOR  
 WISDOM, IN THE GRAVE, WHITHER THOU GOEST.                    
 11 I RETURNED AND SAW UNDER THE SUN, THAT THE RACE IS NOT TO 
 THE SWIFT, NOR THE BATTLE TO THE STRONG, NEITHER YET BREAD TO
 THE WISE, NOR YET RICHES TO MEN OF UNDERSTANDING, NOR YET    
 FAVOR TO MEN OF SKILL. BUT TIME AND CHANCE HAPPEN TO THEM ALL.
 12 FOR MAN ALSO KNOWETH NOT HIS TIME. AS THE FISHES   
 THAT ARE TAKEN IN AN EVIL NET, AND AS THE BIRDS THAT ARE     
 CAUGHT IN THE SNARE. SO ARE THE SONS OF MEN SNARED IN AN EVIL
 TIME, WHEN IT FALLETH SUDDENLY UPON THEM.
                                         ECCLESIASTES 9
 Job cpu time:       0 days  0 hours 21 minutes 58.1 seconds.
 Elapsed time:       0 days  0 hours  0 minutes 13.7 seconds.
 File lengths (MBytes):  RWF=     67 Int=      0 D2E=      0 Chk=      5 Scr=      1
 Normal termination of Gaussian 16 at Mon Apr  8 17:41:14 2024.
