 Entering Gaussian System, Link 0=/ccc/products/gaussian-16-C.02/system/default/g16/g16
 Input=cl_naphthalene_chelpg.gjf
 Output=cl_naphthalene_chelpg.log
 Initial command:
 /ccc/products/gaussian-16-C.02/system/default/g16/l1.exe "/ccc/scratch/cont003/gen7343/penasfra/flp/b-n_flp/cl_naphthalene/reac/Gau-145462.inp" -scrdir="/ccc/scratch/cont003/gen7343/penasfra/flp/b-n_flp/cl_naphthalene/reac/"
 Entering Link 1 = /ccc/products/gaussian-16-C.02/system/default/g16/l1.exe PID=    145511.
  
 Copyright (c) 1988-2021, Gaussian, Inc.  All Rights Reserved.
  
 This is part of the Gaussian(R) 16 program.  It is based on
 the Gaussian(R) 09 system (copyright 2009, Gaussian, Inc.),
 the Gaussian(R) 03 system (copyright 2003, Gaussian, Inc.),
 the Gaussian(R) 98 system (copyright 1998, Gaussian, Inc.),
 the Gaussian(R) 94 system (copyright 1995, Gaussian, Inc.),
 the Gaussian 92(TM) system (copyright 1992, Gaussian, Inc.),
 the Gaussian 90(TM) system (copyright 1990, Gaussian, Inc.),
 the Gaussian 88(TM) system (copyright 1988, Gaussian, Inc.),
 the Gaussian 86(TM) system (copyright 1986, Carnegie Mellon
 University), and the Gaussian 82(TM) system (copyright 1983,
 Carnegie Mellon University). Gaussian is a federally registered
 trademark of Gaussian, Inc.
  
 This software contains proprietary and confidential information,
 including trade secrets, belonging to Gaussian, Inc.
  
 This software is provided under written license and may be
 used, copied, transmitted, or stored only in accord with that
 written license.
  
 The following legend is applicable only to US Government
 contracts under FAR:
  
                    RESTRICTED RIGHTS LEGEND
  
 Use, reproduction and disclosure by the US Government is
 subject to restrictions as set forth in subparagraphs (a)
 and (c) of the Commercial Computer Software - Restricted
 Rights clause in FAR 52.227-19.
  
 Gaussian, Inc.
 340 Quinnipiac St., Bldg. 40, Wallingford CT 06492
  
  
 ---------------------------------------------------------------
 Warning -- This program may not be used in any manner that
 competes with the business of Gaussian, Inc. or will provide
 assistance to any competitor of Gaussian, Inc.  The licensee
 of this program is prohibited from giving any competitor of
 Gaussian, Inc. access to this program.  By using this program,
 the user acknowledges that Gaussian, Inc. is engaged in the
 business of creating and licensing software in the field of
 computational chemistry and represents and warrants to the
 licensee that it is not a competitor of Gaussian, Inc. and that
 it will not use this program in any manner prohibited above.
 ---------------------------------------------------------------
  

 Cite this work as:
 Gaussian 16, Revision C.02,
 M. J. Frisch, G. W. Trucks, H. B. Schlegel, G. E. Scuseria, 
 M. A. Robb, J. R. Cheeseman, G. Scalmani, V. Barone, 
 G. A. Petersson, H. Nakatsuji, X. Li, M. Caricato, A. V. Marenich, 
 J. Bloino, B. G. Janesko, R. Gomperts, B. Mennucci, H. P. Hratchian, 
 J. V. Ortiz, A. F. Izmaylov, J. L. Sonnenberg, D. Williams-Young, 
 F. Ding, F. Lipparini, F. Egidi, J. Goings, B. Peng, A. Petrone, 
 T. Henderson, D. Ranasinghe, V. G. Zakrzewski, J. Gao, N. Rega, 
 G. Zheng, W. Liang, M. Hada, M. Ehara, K. Toyota, R. Fukuda, 
 J. Hasegawa, M. Ishida, T. Nakajima, Y. Honda, O. Kitao, H. Nakai, 
 T. Vreven, K. Throssell, J. A. Montgomery, Jr., J. E. Peralta, 
 F. Ogliaro, M. J. Bearpark, J. J. Heyd, E. N. Brothers, K. N. Kudin, 
 V. N. Staroverov, T. A. Keith, R. Kobayashi, J. Normand, 
 K. Raghavachari, A. P. Rendell, J. C. Burant, S. S. Iyengar, 
 J. Tomasi, M. Cossi, J. M. Millam, M. Klene, C. Adamo, R. Cammi, 
 J. W. Ochterski, R. L. Martin, K. Morokuma, O. Farkas, 
 J. B. Foresman, and D. J. Fox, Gaussian, Inc., Wallingford CT, 2019.
 
 ******************************************
 Gaussian 16:  AS64L-G16RevC.02  7-Dec-2021
                11-Apr-2024 
 ******************************************
 %nprocshared=128
 Will use up to  128 processors via shared memory.
 %mem=30GB
 %chk=cl_naphthalene_chelpg.chk
 ----------------------------------------------------------------------
 # wb97xd/genecp scrf=(solvent=toluene,pcm) nosymm pop=(chelpg) scfcyc=
 300
 ----------------------------------------------------------------------
 1/38=1,172=1/1;
 2/12=2,15=1,17=6,18=5,40=1/2;
 3/5=7,11=2,16=1,17=8,25=1,30=1,70=2201,72=13,74=-58/1,2,3;
 4//1;
 5/5=2,7=300,38=5,53=13/2;
 6/7=2,8=2,9=2,10=2,15=8,20=3,28=1/1,2;
 99/5=1,9=1/99;
 ---------------------
 cl_naphthalene_chelpg
 ---------------------
 Symbolic Z-matrix:
 Charge =  0 Multiplicity = 1
 C                    -5.3697   -0.80793   0.45408 
 C                    -4.03714  -0.78789   0.16969 
 C                    -3.34045   0.4166   -0.00933 
 C                    -4.00134   1.65466   0.04262 
 C                    -5.39079   1.63283   0.33535 
 C                    -6.03926   0.44142   0.5488 
 H                    -5.92272  -1.72923   0.59326 
 C                    -1.95562   0.26172  -0.22606 
 C                    -3.20394   2.80173  -0.19934 
 H                    -5.93971   2.56664   0.39511 
 H                    -7.09788   0.44296   0.78096 
 C                    -1.8602    2.66156  -0.45747 
 C                    -1.22063   1.39509  -0.46042 
 H                    -3.65868   3.78642  -0.17848 
 H                    -1.26395   3.54804  -0.64527 
 H                    -0.14994   1.33977  -0.62677 
 B                    -1.60342  -1.2661    0.04384 
 N                    -3.15966  -1.9404   -0.10449 
 C                    -3.42525  -3.1009    0.78361 
 H                    -4.39417  -3.53553   0.53383 
 H                    -2.64178  -3.84114   0.62439 
 H                    -3.41447  -2.77559   1.81966 
 C                    -3.41819  -2.36281  -1.51878 
 H                    -2.80658  -3.23257  -1.74685 
 H                    -4.47654  -2.6038   -1.6212 
 H                    -3.15737  -1.54599  -2.18921 
 Cl                   -1.0411   -1.49634   1.81088 
 Cl                   -0.41731  -2.10364  -1.09998 
 
                          Input orientation:                          
 ---------------------------------------------------------------------
 Center     Atomic      Atomic             Coordinates (Angstroms)
 Number     Number       Type             X           Y           Z
 ---------------------------------------------------------------------
      1          6           0       -5.369696   -0.807926    0.454077
      2          6           0       -4.037137   -0.787886    0.169686
      3          6           0       -3.340446    0.416598   -0.009331
      4          6           0       -4.001336    1.654656    0.042624
      5          6           0       -5.390788    1.632829    0.335347
      6          6           0       -6.039260    0.441417    0.548800
      7          1           0       -5.922715   -1.729231    0.593264
      8          6           0       -1.955622    0.261718   -0.226058
      9          6           0       -3.203943    2.801725   -0.199338
     10          1           0       -5.939705    2.566644    0.395110
     11          1           0       -7.097882    0.442956    0.780960
     12          6           0       -1.860201    2.661564   -0.457470
     13          6           0       -1.220628    1.395089   -0.460415
     14          1           0       -3.658682    3.786423   -0.178476
     15          1           0       -1.263945    3.548040   -0.645271
     16          1           0       -0.149939    1.339768   -0.626772
     17          5           0       -1.603421   -1.266102    0.043841
     18          7           0       -3.159664   -1.940399   -0.104487
     19          6           0       -3.425251   -3.100900    0.783610
     20          1           0       -4.394168   -3.535532    0.533832
     21          1           0       -2.641780   -3.841142    0.624386
     22          1           0       -3.414471   -2.775590    1.819660
     23          6           0       -3.418194   -2.362809   -1.518782
     24          1           0       -2.806579   -3.232569   -1.746854
     25          1           0       -4.476538   -2.603795   -1.621197
     26          1           0       -3.157369   -1.545993   -2.189210
     27         17           0       -1.041105   -1.496342    1.810882
     28         17           0       -0.417305   -2.103637   -1.099984
 ---------------------------------------------------------------------
                    Distance matrix (angstroms):
                    1          2          3          4          5
     1  C    0.000000
     2  C    1.362715   0.000000
     3  C    2.414966   1.402928   0.000000
     4  C    2.847106   2.446107   1.404373   0.000000
     5  C    2.443732   2.778430   2.408718   1.420120   0.000000
     6  C    1.420615   2.379792   2.756034   2.425139   1.373150
     7  H    1.083516   2.149640   3.411131   3.930088   3.413637
     8  C    3.641788   2.364527   1.410211   2.489460   3.741054
     9  C    4.259932   3.703471   2.396574   1.417797   2.536631
    10  H    3.422880   3.863088   3.397413   2.171000   1.084847
    11  H    2.158283   3.355114   3.839737   3.406164   2.128036
    12  C    5.018449   4.126873   2.726138   2.418350   3.761901
    13  C    4.785847   3.618719   2.377930   2.837739   4.252057
    14  H    4.943251   4.603124   3.389042   2.170421   2.811080
    15  H    6.086066   5.211046   3.810801   3.398737   4.654082
    16  H    5.746885   4.502395   3.378285   3.921799   5.336483
    17  B    3.816156   2.483445   2.419000   3.778998   4.778381
    18  N    2.545335   1.474251   2.365834   3.695196   4.235484
    19  C    3.024432   2.470089   3.606763   4.847293   5.145140
    20  H    2.897904   2.794572   4.126098   5.228160   5.267315
    21  H    4.083005   3.387646   4.360973   5.691277   6.132287
    22  H    3.091832   2.657272   3.679776   4.809298   5.054025
    23  C    3.180911   2.390481   3.163794   4.349491   4.826390
    24  H    4.158432   3.341238   4.076815   5.339910   5.889465
    25  H    2.886111   2.588023   3.607158   4.596577   4.755302
    26  H    3.525067   2.629279   2.938903   3.992182   4.633191
    27  Cl   4.588195   3.488788   3.501355   4.671027   5.557756
    28  Cl   5.349780   4.055422   4.010718   5.317480   6.384112
                    6          7          8          9         10
     6  C    0.000000
     7  H    2.174229   0.000000
     8  C    4.160384   4.513645   0.000000
     9  C    3.764278   5.343173   2.830310   0.000000
    10  H    2.133101   4.300476   4.644508   2.809453   0.000000
    11  H    1.083781   2.476821   5.243069   4.656988   2.449552
    12  C    4.837992   6.073479   2.412865   1.375471   4.168723
    13  C    5.014700   5.742929   1.371010   2.445470   4.937019
    14  H    4.169550   6.011977   3.914872   1.084829   2.649515
    15  H    5.820700   7.147566   3.384386   2.125896   4.889608
    16  H    6.072323   6.650728   2.140854   3.412764   6.005902
    17  B    4.779882   4.378659   1.590951   4.378130   5.797990
    18  N    3.793666   2.857604   2.512731   4.743279   5.318991
    19  C    4.408649   2.855702   3.806105   5.988000   6.212444
    20  H    4.303798   2.367005   4.576357   6.489607   6.296386
    21  H    5.467074   3.902009   4.245884   6.717308   7.210312
    22  H    4.342089   2.981644   3.941883   5.935244   6.078290
    23  C    4.359881   3.336883   3.270840   5.334721   5.858371
    24  H    5.405407   4.176898   3.904739   6.242228   6.930755
    25  H    4.052691   2.785701   4.063569   5.732436   5.739320
    26  H    4.444299   3.927197   2.926770   4.781675   5.597668
    27  Cl   5.507206   5.036561   2.841873   5.214617   6.519858
    28  Cl   6.387657   5.772071   2.953823   5.713063   7.385373
                   11         12         13         14         15
    11  H    0.000000
    12  C    5.821446   0.000000
    13  C    6.081914   1.418810   0.000000
    14  H    4.891563   2.139551   3.426671   0.000000
    15  H    6.760954   1.084726   2.161307   2.451426   0.000000
    16  H    7.145621   2.168134   1.084947   4.300973   2.473422
    17  B    5.801149   3.967847   2.735460   5.459078   4.875047
    18  N    4.687639   4.794921   3.874536   5.748998   5.831737
    19  C    5.103640   6.098824   5.159639   6.958112   7.135920
    20  H    4.816587   6.768136   5.947345   7.393196   7.833618
    21  H    6.183434   6.638258   5.533044   7.736823   7.623022
    22  H    5.000545   6.096205   5.235098   6.863833   7.119617
    23  C    5.167324   5.366381   4.480093   6.298199   6.351531
    24  H    6.189880   6.107286   5.058200   7.242385   7.040587
    25  H    4.682360   5.993620   5.285777   6.601910   7.008442
    26  H    5.320289   4.731290   3.922966   5.720929   5.649599
    27  Cl   6.442528   4.806716   3.681222   6.222287   5.614992
    28  Cl   7.392780   5.020151   3.646294   6.785905   5.732802
                   16         17         18         19         20
    16  H    0.000000
    17  B    3.058250   0.000000
    18  N    4.482267   1.702519   0.000000
    19  C    5.695294   2.689388   1.485266   0.000000
    20  H    6.567270   3.630244   2.115632   1.090914   0.000000
    21  H    5.883579   2.836557   2.100544   1.089558   1.781140
    22  H    5.794685   2.951608   2.113010   1.085975   1.786245
    23  C    5.018590   2.634000   1.498499   2.417817   2.557543
    24  H    5.405422   2.919104   2.119373   2.608321   2.795309
    25  H    5.938016   3.580024   2.115339   2.671220   2.349270
    26  H    4.451232   2.734888   2.121705   3.365584   3.592060
    27  Cl   3.844458   1.868594   2.890349   3.051892   4.127007
    28  Cl   3.486037   1.848424   2.922019   3.686489   4.531569
                   21         22         23         24         25
    21  H    0.000000
    22  H    1.777957   0.000000
    23  C    2.716884   3.363866   0.000000
    24  H    2.453630   3.646695   1.087461   0.000000
    25  H    3.152778   3.605135   1.090255   1.788829   0.000000
    26  H    3.667406   4.201077   1.088435   1.778559   1.783757
    27  Cl   3.077015   2.696186   4.181863   4.334613   4.980745
    28  Cl   3.307668   4.237788   3.041035   2.720581   4.123008
                   26         27         28
    26  H    0.000000
    27  Cl   4.525679   0.000000
    28  Cl   3.000888   3.038268   0.000000
 Symmetry turned off by external request.
 Stoichiometry    C12H12BCl2N
 Framework group  C1[X(C12H12BCl2N)]
 Deg. of freedom    78
 Full point group                 C1      NOp   1
 Rotational constants (GHZ):           0.6448155           0.4138990           0.3211155
 General basis read from cards:  (5D, 7F)
 ======================================================================================================
                                       Pseudopotential Parameters
 ======================================================================================================
  Center     Atomic      Valence      Angular      Power
  Number     Number     Electrons     Momentum     of R      Exponent        Coefficient   SO-Coeffient
 ======================================================================================================
    1          6
                                   No pseudopotential on this center.
    2          6
                                   No pseudopotential on this center.
    3          6
                                   No pseudopotential on this center.
    4          6
                                   No pseudopotential on this center.
    5          6
                                   No pseudopotential on this center.
    6          6
                                   No pseudopotential on this center.
    7          1
                                   No pseudopotential on this center.
    8          6
                                   No pseudopotential on this center.
    9          6
                                   No pseudopotential on this center.
   10          1
                                   No pseudopotential on this center.
   11          1
                                   No pseudopotential on this center.
   12          6
                                   No pseudopotential on this center.
   13          6
                                   No pseudopotential on this center.
   14          1
                                   No pseudopotential on this center.
   15          1
                                   No pseudopotential on this center.
   16          1
                                   No pseudopotential on this center.
   17          5
                                   No pseudopotential on this center.
   18          7
                                   No pseudopotential on this center.
   19          6
                                   No pseudopotential on this center.
   20          1
                                   No pseudopotential on this center.
   21          1
                                   No pseudopotential on this center.
   22          1
                                   No pseudopotential on this center.
   23          6
                                   No pseudopotential on this center.
   24          1
                                   No pseudopotential on this center.
   25          1
                                   No pseudopotential on this center.
   26          1
                                   No pseudopotential on this center.
   27         17
                                   No pseudopotential on this center.
   28         17
                                   No pseudopotential on this center.
 ======================================================================================================
   452 basis functions,   718 primitive gaussians,   468 cartesian basis functions
    65 alpha electrons       65 beta electrons
       nuclear repulsion energy      1323.7733462666 Hartrees.
 NAtoms=   28 NActive=   28 NUniq=   28 SFac= 1.00D+00 NAtFMM=   60 NAOKFM=F Big=F
 Integral buffers will be    131072 words long.
 Raffenetti 2 integral format.
 Two-electron integral symmetry is turned off.
 Nuclear repulsion after empirical dispersion term =     1323.7490452173 Hartrees.
 ------------------------------------------------------------------------------
 Polarizable Continuum Model (PCM)
 =================================
 Model                : PCM.
 Atomic radii         : UFF (Universal Force Field).
 Polarization charges : Total charges.
 Charge compensation  : None.
 Solution method      : On-the-fly selection.
 Cavity type          : Scaled VdW (van der Waals Surface) (Alpha=1.100).
 Cavity algorithm     : GePol (No added spheres)
                        Default sphere list used, NSphG=   28.
                        Lebedev-Laikov grids with approx.  5.0 points / Ang**2.
                        Smoothing algorithm: York/Karplus (Gamma=1.0000).
                        Polarization charges: spherical gaussians, with
                                              point-specific exponents (IZeta= 3).
                        Self-potential: point-specific (ISelfS= 7).
                        Self-field    : sphere-specific E.n sum rule (ISelfD= 2).
 Solvent              : Toluene, Eps=   2.374100 Eps(inf)=   2.238315
 ------------------------------------------------------------------------------
 One-electron integrals computed using PRISM.
   1 Symmetry operations used in ECPInt.
 ECPInt:  NShTT=   14535 NPrTT=   50432 LenC2=   13761 LenP2D=   33957.
 LDataN:  DoStor=T MaxTD1= 4 Len=   56
 Number of processors reduced to  98 by ecpmxn.
 NBasis=   452 RedAO= T EigKep=  1.51D-06  NBF=   452
 NBsUse=   447 1.00D-06 EigRej=  8.84D-07 NBFU=   447
 ExpMin= 3.15D-02 ExpMax= 1.06D+05 ExpMxC= 3.62D+03 IAcc=3 IRadAn=         5 AccDes= 0.00D+00
 Harris functional with IExCor= 4639 and IRadAn=       5 diagonalized for initial guess.
 HarFok:  IExCor= 4639 AccDes= 0.00D+00 IRadAn=         5 IDoV= 1 UseB2=F ITyADJ=14
 ICtDFT=  3500011 ScaDFX=  1.000000  1.000000  1.000000  1.000000
 FoFCou: FMM=F IPFlag=           0 FMFlag=      100000 FMFlg1=           0
         NFxFlg=           0 DoJE=T BraDBF=F KetDBF=T FulRan=T
         wScrn=  0.000000 ICntrl=       500 IOpCl=  0 I1Cent=   200000004 NGrid=           0
         NMat0=    1 NMatS0=      1 NMatT0=    0 NMatD0=    1 NMtDS0=    0 NMtDT0=    0
 Symmetry not used in FoFCou.
 Requested convergence on RMS density matrix=1.00D-08 within 300 cycles.
 Requested convergence on MAX density matrix=1.00D-06.
 Requested convergence on             energy=1.00D-06.
 No special actions if energy rises.
 Inv3:  Mode=1 IEnd=    12891987.
 Iteration    1 A*A^-1 deviation from unit magnitude is 3.55D-15 for   2058.
 Iteration    1 A*A^-1 deviation from orthogonality  is 1.89D-15 for   2073   1732.
 Iteration    1 A^-1*A deviation from unit magnitude is 3.55D-15 for   2058.
 Iteration    1 A^-1*A deviation from orthogonality  is 1.46D-15 for   2065   1877.
 Error on total polarization charges =  0.01180
 SCF Done:  E(RwB97XD) =  -1464.60167965     A.U. after   16 cycles
            NFock= 16  Conv=0.86D-08     -V/T= 2.0030

 **********************************************************************

            Population analysis using the SCF Density.

 **********************************************************************

 Alpha  occ. eigenvalues -- -101.68697-101.68124 -14.54146 -10.34790 -10.33672
 Alpha  occ. eigenvalues --  -10.33534 -10.31439 -10.31118 -10.30822 -10.30556
 Alpha  occ. eigenvalues --  -10.30331 -10.29847 -10.29774 -10.29462 -10.28016
 Alpha  occ. eigenvalues --   -9.55745  -9.55171  -7.30404  -7.29829  -7.29812
 Alpha  occ. eigenvalues --   -7.29772  -7.29233  -7.29202  -6.92580  -1.10973
 Alpha  occ. eigenvalues --   -0.99499  -0.94177  -0.91672  -0.89750  -0.88531
 Alpha  occ. eigenvalues --   -0.86082  -0.84263  -0.83289  -0.78964  -0.73751
 Alpha  occ. eigenvalues --   -0.72362  -0.69259  -0.65505  -0.62052  -0.61844
 Alpha  occ. eigenvalues --   -0.59707  -0.58374  -0.58094  -0.55354  -0.54258
 Alpha  occ. eigenvalues --   -0.52426  -0.51832  -0.50679  -0.50506  -0.49803
 Alpha  occ. eigenvalues --   -0.49075  -0.48840  -0.46606  -0.46130  -0.45685
 Alpha  occ. eigenvalues --   -0.43259  -0.43067  -0.42585  -0.39387  -0.38625
 Alpha  occ. eigenvalues --   -0.37644  -0.36316  -0.35997  -0.33373  -0.30070
 Alpha virt. eigenvalues --    0.00214   0.03187   0.03542   0.04535   0.04979
 Alpha virt. eigenvalues --    0.05705   0.06271   0.06606   0.06735   0.07492
 Alpha virt. eigenvalues --    0.08260   0.08620   0.08743   0.09286   0.10021
 Alpha virt. eigenvalues --    0.10560   0.10919   0.11456   0.12004   0.13040
 Alpha virt. eigenvalues --    0.13215   0.13936   0.14030   0.14904   0.15151
 Alpha virt. eigenvalues --    0.15678   0.15841   0.16045   0.16377   0.16858
 Alpha virt. eigenvalues --    0.17068   0.17215   0.17659   0.17685   0.17880
 Alpha virt. eigenvalues --    0.18064   0.18399   0.18423   0.19076   0.19261
 Alpha virt. eigenvalues --    0.19806   0.19957   0.20251   0.20921   0.21515
 Alpha virt. eigenvalues --    0.21779   0.21966   0.22260   0.22650   0.22777
 Alpha virt. eigenvalues --    0.23048   0.23276   0.23471   0.23692   0.24245
 Alpha virt. eigenvalues --    0.24298   0.24753   0.24824   0.25126   0.26508
 Alpha virt. eigenvalues --    0.26633   0.26950   0.27119   0.27756   0.28222
 Alpha virt. eigenvalues --    0.28463   0.29449   0.29600   0.30371   0.30506
 Alpha virt. eigenvalues --    0.30804   0.31311   0.31451   0.31954   0.32295
 Alpha virt. eigenvalues --    0.32390   0.32808   0.33405   0.33622   0.34273
 Alpha virt. eigenvalues --    0.34891   0.35221   0.35598   0.36122   0.36329
 Alpha virt. eigenvalues --    0.36918   0.37813   0.37961   0.38457   0.39175
 Alpha virt. eigenvalues --    0.39674   0.40259   0.40695   0.42206   0.43297
 Alpha virt. eigenvalues --    0.43530   0.44237   0.44845   0.45014   0.46695
 Alpha virt. eigenvalues --    0.49154   0.49590   0.51428   0.53227   0.53653
 Alpha virt. eigenvalues --    0.55404   0.56282   0.57311   0.57598   0.58466
 Alpha virt. eigenvalues --    0.59060   0.59342   0.60299   0.61075   0.61256
 Alpha virt. eigenvalues --    0.62362   0.62551   0.63778   0.64735   0.65109
 Alpha virt. eigenvalues --    0.65604   0.65888   0.66856   0.67542   0.68038
 Alpha virt. eigenvalues --    0.68623   0.69452   0.69862   0.70054   0.70651
 Alpha virt. eigenvalues --    0.71677   0.72252   0.73316   0.73484   0.74434
 Alpha virt. eigenvalues --    0.75453   0.75855   0.76687   0.77831   0.78439
 Alpha virt. eigenvalues --    0.79422   0.79647   0.80303   0.81159   0.81850
 Alpha virt. eigenvalues --    0.82048   0.84356   0.84463   0.85683   0.85870
 Alpha virt. eigenvalues --    0.87314   0.88501   0.89285   0.89576   0.90731
 Alpha virt. eigenvalues --    0.92333   0.92531   0.94104   0.94590   0.95213
 Alpha virt. eigenvalues --    0.95823   0.96175   0.97147   0.97994   0.98788
 Alpha virt. eigenvalues --    0.99547   1.00172   1.01215   1.01373   1.02671
 Alpha virt. eigenvalues --    1.03141   1.03985   1.05325   1.05650   1.07078
 Alpha virt. eigenvalues --    1.07302   1.08346   1.09798   1.10916   1.11609
 Alpha virt. eigenvalues --    1.13245   1.13719   1.14376   1.15113   1.17073
 Alpha virt. eigenvalues --    1.17215   1.17602   1.19445   1.20315   1.21145
 Alpha virt. eigenvalues --    1.22198   1.23435   1.24604   1.26090   1.28682
 Alpha virt. eigenvalues --    1.30932   1.32301   1.35348   1.39060   1.39261
 Alpha virt. eigenvalues --    1.42014   1.43509   1.48675   1.49188   1.51109
 Alpha virt. eigenvalues --    1.52266   1.53902   1.54523   1.56589   1.57121
 Alpha virt. eigenvalues --    1.58170   1.59181   1.59427   1.61346   1.61873
 Alpha virt. eigenvalues --    1.62427   1.64335   1.65633   1.66137   1.66632
 Alpha virt. eigenvalues --    1.68519   1.69346   1.70188   1.71823   1.72509
 Alpha virt. eigenvalues --    1.74331   1.75193   1.75897   1.77356   1.78186
 Alpha virt. eigenvalues --    1.79535   1.80662   1.80876   1.82536   1.83240
 Alpha virt. eigenvalues --    1.83877   1.85121   1.88453   1.90862   1.92719
 Alpha virt. eigenvalues --    1.93607   1.94731   1.95768   1.96786   1.98258
 Alpha virt. eigenvalues --    1.98946   1.99138   2.01368   2.02662   2.03060
 Alpha virt. eigenvalues --    2.03630   2.04774   2.06187   2.08179   2.08696
 Alpha virt. eigenvalues --    2.11051   2.11864   2.14289   2.14825   2.15518
 Alpha virt. eigenvalues --    2.18744   2.21050   2.21794   2.25144   2.26251
 Alpha virt. eigenvalues --    2.26967   2.28513   2.29484   2.31246   2.36446
 Alpha virt. eigenvalues --    2.39676   2.41202   2.42245   2.43454   2.44901
 Alpha virt. eigenvalues --    2.47068   2.49241   2.50258   2.52090   2.53269
 Alpha virt. eigenvalues --    2.54640   2.56233   2.57588   2.58029   2.58732
 Alpha virt. eigenvalues --    2.59656   2.61546   2.63667   2.64755   2.65278
 Alpha virt. eigenvalues --    2.67427   2.69648   2.71252   2.74815   2.75024
 Alpha virt. eigenvalues --    2.77517   2.78722   2.78819   2.80248   2.80432
 Alpha virt. eigenvalues --    2.81710   2.82211   2.82723   2.83727   2.83938
 Alpha virt. eigenvalues --    2.84686   2.85250   2.85710   2.87313   2.89970
 Alpha virt. eigenvalues --    2.91477   2.93568   2.94847   2.95123   2.96627
 Alpha virt. eigenvalues --    2.98344   2.98902   3.01704   3.04543   3.05232
 Alpha virt. eigenvalues --    3.06980   3.09667   3.14597   3.18975   3.20670
 Alpha virt. eigenvalues --    3.23050   3.26925   3.34081   3.34489   3.44094
 Alpha virt. eigenvalues --    3.48056   3.49374   3.49790   3.55377   3.60067
 Alpha virt. eigenvalues --    3.61786   3.64418   3.69033   3.71184   3.72517
 Alpha virt. eigenvalues --    3.81229   3.83287   3.87111   3.88559   3.91207
 Alpha virt. eigenvalues --    3.91588   3.99407   4.11562   4.13125   4.15778
 Alpha virt. eigenvalues --    4.23684   4.27153   4.46555   4.52519   4.81096
 Alpha virt. eigenvalues --    4.91147   4.95110   4.96292   9.99976  10.03319
 Alpha virt. eigenvalues --   14.61414  23.67224  23.96021  24.04176  24.07478
 Alpha virt. eigenvalues --   24.08144  24.09403  24.12249  24.20056  24.25706
 Alpha virt. eigenvalues --   24.26643  24.31616  24.32156  26.13800  26.23225
 Alpha virt. eigenvalues --   26.35522  26.42150  26.75400  26.88390  35.65168
 Alpha virt. eigenvalues --  216.10016 216.13452
          Condensed to atoms (all electrons):
               1          2          3          4          5          6
     1  C    8.109777  -1.462098   0.929825   0.109413  -2.581924   1.308674
     2  C   -1.462098  17.252107   6.618957  -1.172602   4.879879  -2.740195
     3  C    0.929825   6.618957  18.833688   0.771489  -0.120238  -0.706248
     4  C    0.109413  -1.172602   0.771489   8.967619  -2.272601  -0.082518
     5  C   -2.581924   4.879879  -0.120238  -2.272601  12.794822  -1.763126
     6  C    1.308674  -2.740195  -0.706248  -0.082518  -1.763126   7.882869
     7  H    0.463895  -0.094729   0.029334   0.037858  -0.097077  -0.048757
     8  C   -0.160823  -7.656634  -4.430027   1.230612  -3.732462   1.200948
     9  C   -0.436139  -4.647795  -9.537220  -1.710318  -0.499705   1.114586
    10  H   -0.020267   0.099712   0.059155  -0.079043   0.518521  -0.104680
    11  H   -0.034263  -0.015158  -0.001551   0.018069  -0.079885   0.408664
    12  C   -0.094903   1.189397   1.669637  -0.190415   0.530299  -0.729766
    13  C    0.009585  -4.655912  -8.073341   0.766294  -1.832006   0.580604
    14  H    0.010141  -0.106863  -0.142095  -0.084211  -0.046609   0.072526
    15  H    0.002728  -0.000570   0.024055   0.001742   0.002889   0.000734
    16  H    0.011097   0.119488   0.372795  -0.015375   0.002941  -0.009246
    17  B    0.189139   0.176766  -0.007381  -0.215858   0.383864   0.108298
    18  N   -0.024466  -0.724664  -0.107077  -0.215222   0.182019   0.019852
    19  C   -0.107383  -0.543226  -0.106606  -0.043000  -0.064996  -0.077354
    20  H    0.095453  -0.150492  -0.007467  -0.007369  -0.004752   0.039696
    21  H   -0.040061   0.096775  -0.009137   0.006065  -0.007506  -0.015169
    22  H   -0.017753  -0.025479   0.014530  -0.018386   0.025348  -0.001708
    23  C    0.075285  -0.557583  -0.036536  -0.017232  -0.102376   0.023092
    24  H    0.036512   0.043708   0.022008  -0.001973   0.003419   0.010930
    25  H    0.000607  -0.030297   0.012635  -0.016198   0.032827   0.017913
    26  H    0.010368  -0.062618   0.012481  -0.000662  -0.003859  -0.016907
    27  Cl   0.029933   0.106234   0.265501  -0.075971   0.068032  -0.018430
    28  Cl  -0.016552  -0.061369  -0.130192  -0.000440  -0.002110  -0.005349
               7          8          9         10         11         12
     1  C    0.463895  -0.160823  -0.436139  -0.020267  -0.034263  -0.094903
     2  C   -0.094729  -7.656634  -4.647795   0.099712  -0.015158   1.189397
     3  C    0.029334  -4.430027  -9.537220   0.059155  -0.001551   1.669637
     4  C    0.037858   1.230612  -1.710318  -0.079043   0.018069  -0.190415
     5  C   -0.097077  -3.732462  -0.499705   0.518521  -0.079885   0.530299
     6  C   -0.048757   1.200948   1.114586  -0.104680   0.408664  -0.729766
     7  H    0.484988   0.082295   0.000066   0.000536  -0.005457  -0.001389
     8  C    0.082295  18.725885   4.146933  -0.084961   0.027892  -2.632784
     9  C    0.000066   4.146933  17.363946  -0.056503   0.011045  -2.475500
    10  H    0.000536  -0.084961  -0.056503   0.453387  -0.010839   0.055538
    11  H   -0.005457   0.027892   0.011045  -0.010839   0.446284  -0.005893
    12  C   -0.001389  -2.632784  -2.475500   0.055538  -0.005893   7.961389
    13  C    0.025088   1.694287   2.574069  -0.036118   0.010124   0.776192
    14  H   -0.000106   0.078332   0.622400  -0.003084   0.001335  -0.120600
    15  H    0.000083   0.017827  -0.071502   0.000609   0.000010   0.400601
    16  H   -0.000679   0.038625  -0.268703   0.000412  -0.000194  -0.065147
    17  B   -0.046185  -1.423321   0.133948   0.001270  -0.005670   0.069522
    18  N   -0.026819  -0.672524  -0.124562  -0.001151  -0.007509   0.049901
    19  C    0.008738   0.216782   0.038444  -0.001134   0.000638   0.000129
    20  H   -0.013950  -0.003671  -0.002867  -0.000110   0.002679  -0.000585
    21  H    0.006848   0.004131   0.010233  -0.000071  -0.000312   0.000666
    22  H   -0.005106  -0.105036   0.000667  -0.000308  -0.001190  -0.000169
    23  C   -0.008000   0.061057  -0.021707  -0.001689   0.001542   0.024941
    24  H    0.003097  -0.035774  -0.011336   0.000147  -0.000283  -0.004330
    25  H   -0.015855  -0.063418   0.003491  -0.000024  -0.000018  -0.002382
    26  H    0.002630   0.044264  -0.018579   0.000292  -0.000043   0.018545
    27  Cl  -0.003106  -0.903546  -0.012630   0.000349  -0.001002  -0.004901
    28  Cl   0.002060  -0.563728   0.063349  -0.000282  -0.000162   0.023813
              13         14         15         16         17         18
     1  C    0.009585   0.010141   0.002728   0.011097   0.189139  -0.024466
     2  C   -4.655912  -0.106863  -0.000570   0.119488   0.176766  -0.724664
     3  C   -8.073341  -0.142095   0.024055   0.372795  -0.007381  -0.107077
     4  C    0.766294  -0.084211   0.001742  -0.015375  -0.215858  -0.215222
     5  C   -1.832006  -0.046609   0.002889   0.002941   0.383864   0.182019
     6  C    0.580604   0.072526   0.000734  -0.009246   0.108298   0.019852
     7  H    0.025088  -0.000106   0.000083  -0.000679  -0.046185  -0.026819
     8  C    1.694287   0.078332   0.017827   0.038625  -1.423321  -0.672524
     9  C    2.574069   0.622400  -0.071502  -0.268703   0.133948  -0.124562
    10  H   -0.036118  -0.003084   0.000609   0.000412   0.001270  -0.001151
    11  H    0.010124   0.001335   0.000010  -0.000194  -0.005670  -0.007509
    12  C    0.776192  -0.120600   0.400601  -0.065147   0.069522   0.049901
    13  C   14.790092   0.058835  -0.034941   0.113051  -0.100883  -0.421566
    14  H    0.058835   0.463942  -0.009430  -0.001046  -0.007344  -0.001451
    15  H   -0.034941  -0.009430   0.462618  -0.010229  -0.015325  -0.000011
    16  H    0.113051  -0.001046  -0.010229   0.487511  -0.048787   0.008730
    17  B   -0.100883  -0.007344  -0.015325  -0.048787   6.220012  -0.021074
    18  N   -0.421566  -0.001451  -0.000011   0.008730  -0.021074   8.263042
    19  C    0.097421   0.000124   0.000663  -0.009963  -0.307477   0.414826
    20  H    0.000699   0.000028   0.000068  -0.000040   0.053074  -0.014127
    21  H    0.034730  -0.000028  -0.000017  -0.002234  -0.081762  -0.064176
    22  H   -0.031248   0.000096  -0.000410   0.002821  -0.019320   0.045632
    23  C    0.048550   0.001337   0.000352   0.004770  -0.092415   0.342082
    24  H   -0.031336  -0.000241   0.000305   0.000103  -0.030777   0.010765
    25  H   -0.025182  -0.000017  -0.000242   0.000376   0.068259   0.007410
    26  H    0.006153   0.000324   0.000890   0.000395  -0.086780   0.007867
    27  Cl  -0.220063  -0.001405  -0.002215  -0.007753   0.532496   0.068375
    28  Cl   0.161621  -0.000026  -0.002611   0.002767   0.447459   0.109498
              19         20         21         22         23         24
     1  C   -0.107383   0.095453  -0.040061  -0.017753   0.075285   0.036512
     2  C   -0.543226  -0.150492   0.096775  -0.025479  -0.557583   0.043708
     3  C   -0.106606  -0.007467  -0.009137   0.014530  -0.036536   0.022008
     4  C   -0.043000  -0.007369   0.006065  -0.018386  -0.017232  -0.001973
     5  C   -0.064996  -0.004752  -0.007506   0.025348  -0.102376   0.003419
     6  C   -0.077354   0.039696  -0.015169  -0.001708   0.023092   0.010930
     7  H    0.008738  -0.013950   0.006848  -0.005106  -0.008000   0.003097
     8  C    0.216782  -0.003671   0.004131  -0.105036   0.061057  -0.035774
     9  C    0.038444  -0.002867   0.010233   0.000667  -0.021707  -0.011336
    10  H   -0.001134  -0.000110  -0.000071  -0.000308  -0.001689   0.000147
    11  H    0.000638   0.002679  -0.000312  -0.001190   0.001542  -0.000283
    12  C    0.000129  -0.000585   0.000666  -0.000169   0.024941  -0.004330
    13  C    0.097421   0.000699   0.034730  -0.031248   0.048550  -0.031336
    14  H    0.000124   0.000028  -0.000028   0.000096   0.001337  -0.000241
    15  H    0.000663   0.000068  -0.000017  -0.000410   0.000352   0.000305
    16  H   -0.009963  -0.000040  -0.002234   0.002821   0.004770   0.000103
    17  B   -0.307477   0.053074  -0.081762  -0.019320  -0.092415  -0.030777
    18  N    0.414826  -0.014127  -0.064176   0.045632   0.342082   0.010765
    19  C    5.834003   0.364798   0.438912   0.375981  -0.215166  -0.021453
    20  H    0.364798   0.558502  -0.045505  -0.038789   0.015167   0.002130
    21  H    0.438912  -0.045505   0.464881  -0.012795  -0.057594  -0.012179
    22  H    0.375981  -0.038789  -0.012795   0.494427   0.027673  -0.009505
    23  C   -0.215166   0.015167  -0.057594   0.027673   5.802803   0.367645
    24  H   -0.021453   0.002130  -0.012179  -0.009505   0.367645   0.471599
    25  H   -0.039574   0.008741  -0.002913   0.004678   0.393999  -0.030775
    26  H    0.022981  -0.001808  -0.000517   0.000801   0.440288  -0.011386
    27  Cl  -0.037466  -0.006294  -0.005466   0.085361   0.015234  -0.016918
    28  Cl   0.016476  -0.007937   0.020853   0.004887  -0.044938   0.002905
              25         26         27         28
     1  C    0.000607   0.010368   0.029933  -0.016552
     2  C   -0.030297  -0.062618   0.106234  -0.061369
     3  C    0.012635   0.012481   0.265501  -0.130192
     4  C   -0.016198  -0.000662  -0.075971  -0.000440
     5  C    0.032827  -0.003859   0.068032  -0.002110
     6  C    0.017913  -0.016907  -0.018430  -0.005349
     7  H   -0.015855   0.002630  -0.003106   0.002060
     8  C   -0.063418   0.044264  -0.903546  -0.563728
     9  C    0.003491  -0.018579  -0.012630   0.063349
    10  H   -0.000024   0.000292   0.000349  -0.000282
    11  H   -0.000018  -0.000043  -0.001002  -0.000162
    12  C   -0.002382   0.018545  -0.004901   0.023813
    13  C   -0.025182   0.006153  -0.220063   0.161621
    14  H   -0.000017   0.000324  -0.001405  -0.000026
    15  H   -0.000242   0.000890  -0.002215  -0.002611
    16  H    0.000376   0.000395  -0.007753   0.002767
    17  B    0.068259  -0.086780   0.532496   0.447459
    18  N    0.007410   0.007867   0.068375   0.109498
    19  C   -0.039574   0.022981  -0.037466   0.016476
    20  H    0.008741  -0.001808  -0.006294  -0.007937
    21  H   -0.002913  -0.000517  -0.005466   0.020853
    22  H    0.004678   0.000801   0.085361   0.004887
    23  C    0.393999   0.440288   0.015234  -0.044938
    24  H   -0.030775  -0.011386  -0.016918   0.002905
    25  H    0.510874  -0.041057   0.008490   0.003188
    26  H   -0.041057   0.451078  -0.005372  -0.023671
    27  Cl   0.008490  -0.005372  17.302342  -0.047765
    28  Cl   0.003188  -0.023671  -0.047765  17.056339
 Mulliken charges:
               1
     1  C   -0.395799
     2  C    0.125261
     3  C   -0.220974
     4  C    0.310233
     5  C   -0.213627
     6  C   -0.469934
     7  H    0.219698
     8  C    0.898838
     9  C   -0.188112
    10  H    0.210337
    11  H    0.241146
    12  C   -0.441804
    13  C   -0.284800
    14  H    0.215135
    15  H    0.231329
    16  H    0.273511
    17  B   -0.873750
    18  N   -0.103601
    19  C   -0.256117
    20  H    0.164728
    21  H    0.273345
    22  H    0.204301
    23  C   -0.490581
    24  H    0.242996
    25  H    0.194463
    26  H    0.253903
    27  Cl  -0.112043
    28  Cl  -0.008082
 Sum of Mulliken charges =  -0.00000
 Mulliken charges with hydrogens summed into heavy atoms:
               1
     1  C   -0.176100
     2  C    0.125261
     3  C   -0.220974
     4  C    0.310233
     5  C   -0.003289
     6  C   -0.228788
     8  C    0.898838
     9  C    0.027023
    12  C   -0.210475
    13  C   -0.011289
    17  B   -0.873750
    18  N   -0.103601
    19  C    0.386256
    23  C    0.200781
    27  Cl  -0.112043
    28  Cl  -0.008082
 Electronic spatial extent (au):  <R**2>=           7314.1418
 Charge=             -0.0000 electrons
 Dipole moment (field-independent basis, Debye):
    X=             -6.7835    Y=             -0.5200    Z=             -1.4880  Tot=              6.9642
 Quadrupole moment (field-independent basis, Debye-Ang):
   XX=            -69.8907   YY=            -92.0860   ZZ=           -114.2351
   XY=             14.7467   XZ=              0.8853   YZ=              1.0297
 Traceless Quadrupole moment (field-independent basis, Debye-Ang):
   XX=             22.1799   YY=             -0.0154   ZZ=            -22.1645
   XY=             14.7467   XZ=              0.8853   YZ=              1.0297
 Octapole moment (field-independent basis, Debye-Ang**2):
  XXX=            692.5711  YYY=            133.4017  ZZZ=            -22.4406  XYY=            222.1187
  XXY=             -7.4029  XXZ=              7.4687  XZZ=            310.5944  YZZ=             39.5747
  YYZ=             -8.0098  XYZ=             -5.8596
 Hexadecapole moment (field-independent basis, Debye-Ang**3):
 XXXX=          -5853.0002 YYYY=          -2176.0715 ZZZZ=           -676.7839 XXXY=             37.6838
 XXXZ=            -29.1933 YYYX=            -67.4048 YYYZ=             15.3979 ZZZX=            137.3520
 ZZZY=             43.7854 XXYY=          -1249.1412 XXZZ=          -1334.8875 YYZZ=           -521.3224
 XXYZ=             31.8746 YYXZ=             32.3297 ZZXY=             -3.7727
 N-N= 1.323749045217D+03 E-N=-6.098906001932D+03  KE= 1.460240692365D+03
 Breneman (CHELPG) radii used.
 Generate Potential Derived Charges using the Breneman model, NDens= 1.
 Grid spacing= 0.300 Box extension= 2.800
 NStep X,Y,Z=   43     46     34   Total possible points=       67252
 Number of Points to Fit=   15969

 **********************************************************************

            Electrostatic Properties Using The SCF Density.

 **********************************************************************

       Atomic Center    1 is at  -5.369696 -0.807926  0.454077
       Atomic Center    2 is at  -4.037137 -0.787886  0.169686
       Atomic Center    3 is at  -3.340446  0.416598 -0.009331
       Atomic Center    4 is at  -4.001336  1.654656  0.042624
       Atomic Center    5 is at  -5.390788  1.632829  0.335347
       Atomic Center    6 is at  -6.039260  0.441417  0.548800
       Atomic Center    7 is at  -5.922715 -1.729231  0.593264
       Atomic Center    8 is at  -1.955622  0.261718 -0.226058
       Atomic Center    9 is at  -3.203943  2.801725 -0.199338
       Atomic Center   10 is at  -5.939705  2.566644  0.395110
       Atomic Center   11 is at  -7.097882  0.442956  0.780960
       Atomic Center   12 is at  -1.860201  2.661564 -0.457470
       Atomic Center   13 is at  -1.220628  1.395089 -0.460415
       Atomic Center   14 is at  -3.658682  3.786423 -0.178476
       Atomic Center   15 is at  -1.263945  3.548040 -0.645271
       Atomic Center   16 is at  -0.149939  1.339768 -0.626772
       Atomic Center   17 is at  -1.603421 -1.266102  0.043841
       Atomic Center   18 is at  -3.159664 -1.940399 -0.104487
       Atomic Center   19 is at  -3.425251 -3.100900  0.783610
       Atomic Center   20 is at  -4.394168 -3.535532  0.533832
       Atomic Center   21 is at  -2.641780 -3.841142  0.624386
       Atomic Center   22 is at  -3.414471 -2.775590  1.819660
       Atomic Center   23 is at  -3.418194 -2.362809 -1.518782
       Atomic Center   24 is at  -2.806579 -3.232569 -1.746854
       Atomic Center   25 is at  -4.476538 -2.603795 -1.621197
       Atomic Center   26 is at  -3.157369 -1.545993 -2.189210
       Atomic Center   27 is at  -1.041105 -1.496342  1.810882
       Atomic Center   28 is at  -0.417305 -2.103637 -1.099984
   15969 points will be used for fitting atomic charges
 Fitting point charges to electrostatic potential
 Charges from ESP fit, RMS=   0.00427 RRMS=   0.20174:
 ESP charges:
               1
     1  C   -0.225018
     2  C    0.171840
     3  C   -0.025810
     4  C    0.267076
     5  C   -0.309688
     6  C   -0.034571
     7  H    0.162205
     8  C   -0.011796
     9  C   -0.315749
    10  H    0.160368
    11  H    0.104218
    12  C   -0.028174
    13  C   -0.162672
    14  H    0.154038
    15  H    0.102483
    16  H    0.113469
    17  B    0.305433
    18  N   -0.140371
    19  C   -0.200636
    20  H    0.114187
    21  H    0.137537
    22  H    0.117379
    23  C   -0.066554
    24  H    0.116062
    25  H    0.082964
    26  H    0.042433
    27  Cl  -0.326981
    28  Cl  -0.303672
 Sum of ESP charges =   0.00000
 ESP charges with hydrogens summed into heavy atoms:
               1
     1  C   -0.062813
     2  C    0.171840
     3  C   -0.025810
     4  C    0.267076
     5  C   -0.149320
     6  C    0.069647
     8  C   -0.011796
     9  C   -0.161711
    12  C    0.074309
    13  C   -0.049203
    17  B    0.305433
    18  N   -0.140371
    19  C    0.168467
    23  C    0.174904
    27  Cl  -0.326981
    28  Cl  -0.303672
 Charge=   0.00000 Dipole=    -6.8609    -0.3760    -1.4912 Tot=     7.0312
 -----------------------------------------------------------------

              Electrostatic Properties (Atomic Units)

 -----------------------------------------------------------------
    Center     Electric         -------- Electric Field --------
               Potential          X             Y             Z
 -----------------------------------------------------------------
    1 Atom    -14.739579
    2 Atom    -14.711706
    3 Atom    -14.762993
    4 Atom    -14.751562
    5 Atom    -14.753221
    6 Atom    -14.747638
    7 Atom     -1.061924
    8 Atom    -14.790646
    9 Atom    -14.764544
   10 Atom     -1.085670
   11 Atom     -1.082882
   12 Atom    -14.767292
   13 Atom    -14.773862
   14 Atom     -1.094142
   15 Atom     -1.102676
   16 Atom     -1.113647
   17 Atom    -11.381625
   18 Atom    -18.281592
   19 Atom    -14.714776
   20 Atom     -1.067481
   21 Atom     -1.077867
   22 Atom     -1.082046
   23 Atom    -14.713708
   24 Atom     -1.077492
   25 Atom     -1.069582
   26 Atom     -1.078819
   27 Atom    -64.460914
   28 Atom    -64.452998
 -----------------------------------------------------------------
 Unable to Open any file for archive entry.
 1\1\GINC-IRENE5910\SP\RwB97XD\GenECP\C12H12B1Cl2N1\PENASFRA\11-Apr-202
 4\0\\# wb97xd/genecp scrf=(solvent=toluene,pcm) nosymm pop=(chelpg) sc
 fcyc=300\\cl_naphthalene_chelpg\\0,1\C,0,-5.369696,-0.807926,0.454077\
 C,0,-4.037137,-0.787886,0.169686\C,0,-3.340446,0.416598,-0.009331\C,0,
 -4.001336,1.654656,0.042624\C,0,-5.390788,1.632829,0.335347\C,0,-6.039
 26,0.441417,0.5488\H,0,-5.922715,-1.729231,0.593264\C,0,-1.955622,0.26
 1718,-0.226058\C,0,-3.203943,2.801725,-0.199338\H,0,-5.939705,2.566644
 ,0.39511\H,0,-7.097882,0.442956,0.78096\C,0,-1.860201,2.661564,-0.4574
 7\C,0,-1.220628,1.395089,-0.460415\H,0,-3.658682,3.786423,-0.178476\H,
 0,-1.263945,3.54804,-0.645271\H,0,-0.149939,1.339768,-0.626772\B,0,-1.
 603421,-1.266102,0.043841\N,0,-3.159664,-1.940399,-0.104487\C,0,-3.425
 251,-3.1009,0.78361\H,0,-4.394168,-3.535532,0.533832\H,0,-2.64178,-3.8
 41142,0.624386\H,0,-3.414471,-2.77559,1.81966\C,0,-3.418194,-2.362809,
 -1.518782\H,0,-2.806579,-3.232569,-1.746854\H,0,-4.476538,-2.603795,-1
 .621197\H,0,-3.157369,-1.545993,-2.18921\Cl,0,-1.041105,-1.496342,1.81
 0882\Cl,0,-0.417305,-2.103637,-1.099984\\Version=AS64L-G16RevC.02\HF=-
 1464.6016797\RMSD=8.584e-09\Dipole=-2.6688161,-0.204581,-0.5854146\Qua
 drupole=16.4902347,-0.0114586,-16.4787761,10.963789,0.6581773,0.765566
 6\PG=C01 [X(C12H12B1Cl2N1)]\\@
 The archive entry for this job was punched.


 IF MATHEMATICALLY YOU END UP WITH THE INCORRECT ANSWER,
 TRY MULTIPLYING BY THE PAGE NUMBER.
 Job cpu time:       0 days  1 hours 10 minutes  9.1 seconds.
 Elapsed time:       0 days  0 hours  0 minutes 42.7 seconds.
 File lengths (MBytes):  RWF=    181 Int=      0 D2E=      0 Chk=     14 Scr=      1
 Normal termination of Gaussian 16 at Thu Apr 11 15:47:14 2024.
