 Entering Gaussian System, Link 0=/ccc/products/gaussian-16-C.02/system/default/g16/g16
 Input=cn_metriazole_chelpg.gjf
 Output=cn_metriazole_chelpg.log
 Initial command:
 /ccc/products/gaussian-16-C.02/system/default/g16/l1.exe "/ccc/scratch/cont003/gen7343/penasfra/flp/b-n_flp/cn_metriazole/Reactant/Gau-1193669.inp" -scrdir="/ccc/scratch/cont003/gen7343/penasfra/flp/b-n_flp/cn_metriazole/Reactant/"
 Entering Link 1 = /ccc/products/gaussian-16-C.02/system/default/g16/l1.exe PID=   1193718.
  
 Copyright (c) 1988-2021, Gaussian, Inc.  All Rights Reserved.
  
 This is part of the Gaussian(R) 16 program.  It is based on
 the Gaussian(R) 09 system (copyright 2009, Gaussian, Inc.),
 the Gaussian(R) 03 system (copyright 2003, Gaussian, Inc.),
 the Gaussian(R) 98 system (copyright 1998, Gaussian, Inc.),
 the Gaussian(R) 94 system (copyright 1995, Gaussian, Inc.),
 the Gaussian 92(TM) system (copyright 1992, Gaussian, Inc.),
 the Gaussian 90(TM) system (copyright 1990, Gaussian, Inc.),
 the Gaussian 88(TM) system (copyright 1988, Gaussian, Inc.),
 the Gaussian 86(TM) system (copyright 1986, Carnegie Mellon
 University), and the Gaussian 82(TM) system (copyright 1983,
 Carnegie Mellon University). Gaussian is a federally registered
 trademark of Gaussian, Inc.
  
 This software contains proprietary and confidential information,
 including trade secrets, belonging to Gaussian, Inc.
  
 This software is provided under written license and may be
 used, copied, transmitted, or stored only in accord with that
 written license.
  
 The following legend is applicable only to US Government
 contracts under FAR:
  
                    RESTRICTED RIGHTS LEGEND
  
 Use, reproduction and disclosure by the US Government is
 subject to restrictions as set forth in subparagraphs (a)
 and (c) of the Commercial Computer Software - Restricted
 Rights clause in FAR 52.227-19.
  
 Gaussian, Inc.
 340 Quinnipiac St., Bldg. 40, Wallingford CT 06492
  
  
 ---------------------------------------------------------------
 Warning -- This program may not be used in any manner that
 competes with the business of Gaussian, Inc. or will provide
 assistance to any competitor of Gaussian, Inc.  The licensee
 of this program is prohibited from giving any competitor of
 Gaussian, Inc. access to this program.  By using this program,
 the user acknowledges that Gaussian, Inc. is engaged in the
 business of creating and licensing software in the field of
 computational chemistry and represents and warrants to the
 licensee that it is not a competitor of Gaussian, Inc. and that
 it will not use this program in any manner prohibited above.
 ---------------------------------------------------------------
  

 Cite this work as:
 Gaussian 16, Revision C.02,
 M. J. Frisch, G. W. Trucks, H. B. Schlegel, G. E. Scuseria, 
 M. A. Robb, J. R. Cheeseman, G. Scalmani, V. Barone, 
 G. A. Petersson, H. Nakatsuji, X. Li, M. Caricato, A. V. Marenich, 
 J. Bloino, B. G. Janesko, R. Gomperts, B. Mennucci, H. P. Hratchian, 
 J. V. Ortiz, A. F. Izmaylov, J. L. Sonnenberg, D. Williams-Young, 
 F. Ding, F. Lipparini, F. Egidi, J. Goings, B. Peng, A. Petrone, 
 T. Henderson, D. Ranasinghe, V. G. Zakrzewski, J. Gao, N. Rega, 
 G. Zheng, W. Liang, M. Hada, M. Ehara, K. Toyota, R. Fukuda, 
 J. Hasegawa, M. Ishida, T. Nakajima, Y. Honda, O. Kitao, H. Nakai, 
 T. Vreven, K. Throssell, J. A. Montgomery, Jr., J. E. Peralta, 
 F. Ogliaro, M. J. Bearpark, J. J. Heyd, E. N. Brothers, K. N. Kudin, 
 V. N. Staroverov, T. A. Keith, R. Kobayashi, J. Normand, 
 K. Raghavachari, A. P. Rendell, J. C. Burant, S. S. Iyengar, 
 J. Tomasi, M. Cossi, J. M. Millam, M. Klene, C. Adamo, R. Cammi, 
 J. W. Ochterski, R. L. Martin, K. Morokuma, O. Farkas, 
 J. B. Foresman, and D. J. Fox, Gaussian, Inc., Wallingford CT, 2019.
 
 ******************************************
 Gaussian 16:  AS64L-G16RevC.02  7-Dec-2021
                 8-Apr-2024 
 ******************************************
 %nprocshared=128
 Will use up to  128 processors via shared memory.
 %mem=30GB
 %chk=cn_metriazole_chelpg.chk
 ----------------------------------------------------------------------
 # wb97xd/genecp scrf=(solvent=toluene,pcm) nosymm pop=(chelpg) scfcyc=
 300
 ----------------------------------------------------------------------
 1/38=1,172=1/1;
 2/12=2,15=1,17=6,18=5,40=1/2;
 3/5=7,11=2,16=1,17=8,25=1,30=1,70=2201,72=13,74=-58/1,2,3;
 4//1;
 5/5=2,7=300,38=5,53=13/2;
 6/7=2,8=2,9=2,10=2,15=8,20=3,28=1/1,2;
 99/5=1,9=1/99;
 --------------------
 cn_metriazole_chelpg
 --------------------
 Symbolic Z-matrix:
 Charge =  0 Multiplicity = 1
 C                     2.593     1.62864   1.17294 
 H                     2.59779   2.13162   2.12655 
 C                     3.16764   0.43277   0.75197 
 N                     1.96726   2.10872   0.10464 
 N                     2.12547   1.27134  -0.95763 
 N                     2.83365   0.28051  -0.57851 
 B                     3.99594  -0.55245   1.52798 
 C                     1.19851   3.33209  -0.04936 
 H                     1.68952   3.97886  -0.77514 
 H                     0.19599   3.08373  -0.39402 
 H                     1.14543   3.83114   0.9159 
 C                     4.55041  -1.83763   0.8885 
 N                     4.97218  -2.80402   0.42475 
 C                     4.31255  -0.28823   3.0159 
 N                     4.5297   -0.05939   4.12405 
 
                          Input orientation:                          
 ---------------------------------------------------------------------
 Center     Atomic      Atomic             Coordinates (Angstroms)
 Number     Number       Type             X           Y           Z
 ---------------------------------------------------------------------
      1          6           0        2.593004    1.628644    1.172944
      2          1           0        2.597790    2.131622    2.126554
      3          6           0        3.167635    0.432772    0.751967
      4          7           0        1.967263    2.108724    0.104638
      5          7           0        2.125466    1.271343   -0.957628
      6          7           0        2.833648    0.280509   -0.578508
      7          5           0        3.995937   -0.552454    1.527981
      8          6           0        1.198505    3.332088   -0.049364
      9          1           0        1.689522    3.978864   -0.775141
     10          1           0        0.195988    3.083734   -0.394021
     11          1           0        1.145432    3.831141    0.915903
     12          6           0        4.550411   -1.837625    0.888500
     13          7           0        4.972179   -2.804018    0.424747
     14          6           0        4.312546   -0.288229    3.015897
     15          7           0        4.529699   -0.059385    4.124046
 ---------------------------------------------------------------------
                    Distance matrix (angstroms):
                    1          2          3          4          5
     1  C    0.000000
     2  H    1.078138   0.000000
     3  C    1.391953   2.258385   0.000000
     4  N    1.327895   2.118073   2.160727   0.000000
     5  N    2.210338   3.236564   2.170722   1.361853   0.000000
     6  N    2.223277   3.286276   1.380179   2.135341   1.275541
     7  B    2.617530   3.085023   1.502981   3.636384   3.605988
     8  C    2.518012   2.851971   3.595224   1.453040   2.435338
     9  H    3.183528   3.557680   4.134204   2.085324   2.748458
    10  H    3.212219   3.609497   4.143860   2.082479   2.706529
    11  H    2.648118   2.542319   3.957915   2.073711   3.320113
    12  C    3.990911   4.593520   2.661844   4.781293   4.353645
    13  N    5.086135   5.735365   3.720250   5.767757   5.159777
    14  C    3.166655   3.096288   2.637431   4.440852   4.796299
    15  N    3.912701   3.538751   3.669926   5.236642   5.777074
                    6          7          8          9         10
     6  N    0.000000
     7  B    2.545985   0.000000
     8  C    3.502259   5.040170   0.000000
     9  H    3.876276   5.581824   1.089114   0.000000
    10  H    3.853486   5.599604   1.088811   1.782457   0.000000
    11  H    4.205987   5.264591   1.087939   1.782550   1.782123
    12  C    3.096107   1.538844   6.232238   6.692080   6.695195
    13  N    3.885118   2.690672   7.219224   7.630403   7.625484
    14  C    3.928148   1.544005   5.674484   6.281744   6.320105
    15  N    5.010602   2.695844   6.325843   6.955292   7.005225
                   11         12         13         14         15
    11  H    0.000000
    12  C    6.612832   0.000000
    13  N    7.675322   1.151899   0.000000
    14  C    5.604444   2.642542   3.671290   0.000000
    15  N    6.073025   3.692062   4.627484   1.152180   0.000000
 Symmetry turned off by external request.
 Stoichiometry    C5H4BN5
 Framework group  C1[X(C5H4BN5)]
 Deg. of freedom    39
 Full point group                 C1      NOp   1
 Rotational constants (GHZ):           1.9603718           0.7148301           0.5255677
 General basis read from cards:  (5D, 7F)
 ======================================================================================================
                                       Pseudopotential Parameters
 ======================================================================================================
  Center     Atomic      Valence      Angular      Power
  Number     Number     Electrons     Momentum     of R      Exponent        Coefficient   SO-Coeffient
 ======================================================================================================
    1          6
                                   No pseudopotential on this center.
    2          1
                                   No pseudopotential on this center.
    3          6
                                   No pseudopotential on this center.
    4          7
                                   No pseudopotential on this center.
    5          7
                                   No pseudopotential on this center.
    6          7
                                   No pseudopotential on this center.
    7          5
                                   No pseudopotential on this center.
    8          6
                                   No pseudopotential on this center.
    9          1
                                   No pseudopotential on this center.
   10          1
                                   No pseudopotential on this center.
   11          1
                                   No pseudopotential on this center.
   12          6
                                   No pseudopotential on this center.
   13          7
                                   No pseudopotential on this center.
   14          6
                                   No pseudopotential on this center.
   15          7
                                   No pseudopotential on this center.
 ======================================================================================================
   270 basis functions,   432 primitive gaussians,   281 cartesian basis functions
    37 alpha electrons       37 beta electrons
       nuclear repulsion energy       489.6113426004 Hartrees.
 NAtoms=   15 NActive=   15 NUniq=   15 SFac= 1.00D+00 NAtFMM=   60 NAOKFM=F Big=F
 Integral buffers will be    131072 words long.
 Raffenetti 2 integral format.
 Two-electron integral symmetry is turned off.
 Nuclear repulsion after empirical dispersion term =      489.6043882128 Hartrees.
 ------------------------------------------------------------------------------
 Polarizable Continuum Model (PCM)
 =================================
 Model                : PCM.
 Atomic radii         : UFF (Universal Force Field).
 Polarization charges : Total charges.
 Charge compensation  : None.
 Solution method      : On-the-fly selection.
 Cavity type          : Scaled VdW (van der Waals Surface) (Alpha=1.100).
 Cavity algorithm     : GePol (No added spheres)
                        Default sphere list used, NSphG=   15.
                        Lebedev-Laikov grids with approx.  5.0 points / Ang**2.
                        Smoothing algorithm: York/Karplus (Gamma=1.0000).
                        Polarization charges: spherical gaussians, with
                                              point-specific exponents (IZeta= 3).
                        Self-potential: point-specific (ISelfS= 7).
                        Self-field    : sphere-specific E.n sum rule (ISelfD= 2).
 Solvent              : Toluene, Eps=   2.374100 Eps(inf)=   2.238315
 ------------------------------------------------------------------------------
 Spheres list:
 ISph  on   Nord     Re0    Alpha      Xe            Ye            Ze
    1   C      1    1.9255  1.100      2.593004      1.628644      1.172944
    2   H      2    1.4430  1.100      2.597790      2.131622      2.126554
    3   C      3    1.9255  1.100      3.167635      0.432772      0.751967
    4   N      4    1.8300  1.100      1.967263      2.108724      0.104638
    5   N      5    1.8300  1.100      2.125466      1.271343     -0.957628
    6   N      6    1.8300  1.100      2.833648      0.280509     -0.578508
    7   B      7    2.0415  1.100      3.995937     -0.552454      1.527981
    8   C      8    1.9255  1.100      1.198505      3.332088     -0.049364
    9   H      9    1.4430  1.100      1.689522      3.978864     -0.775141
   10   H     10    1.4430  1.100      0.195988      3.083734     -0.394021
   11   H     11    1.4430  1.100      1.145432      3.831141      0.915903
   12   C     12    1.9255  1.100      4.550411     -1.837625      0.888500
   13   N     13    1.8300  1.100      4.972179     -2.804018      0.424747
   14   C     14    1.9255  1.100      4.312546     -0.288229      3.015897
   15   N     15    1.8300  1.100      4.529699     -0.059385      4.124046
 ------------------------------------------------------------------------------
 One-electron integrals computed using PRISM.
   1 Symmetry operations used in ECPInt.
 ECPInt:  NShTT=    3741 NPrTT=   14916 LenC2=    3541 LenP2D=   10008.
 LDataN:  DoStor=T MaxTD1= 4 Len=   56
 NBasis=   270 RedAO= T EigKep=  4.18D-06  NBF=   270
 NBsUse=   270 1.00D-06 EigRej= -1.00D+00 NBFU=   270
 ExpMin= 3.15D-02 ExpMax= 6.29D+03 ExpMxC= 9.49D+02 IAcc=3 IRadAn=         5 AccDes= 0.00D+00
 Harris functional with IExCor= 4639 and IRadAn=       5 diagonalized for initial guess.
 HarFok:  IExCor= 4639 AccDes= 0.00D+00 IRadAn=         5 IDoV= 1 UseB2=F ITyADJ=14
 ICtDFT=  3500011 ScaDFX=  1.000000  1.000000  1.000000  1.000000
 FoFCou: FMM=F IPFlag=           0 FMFlag=      100000 FMFlg1=           0
         NFxFlg=           0 DoJE=T BraDBF=F KetDBF=T FulRan=T
         wScrn=  0.000000 ICntrl=       500 IOpCl=  0 I1Cent=   200000004 NGrid=           0
         NMat0=    1 NMatS0=      1 NMatT0=    0 NMatD0=    1 NMtDS0=    0 NMtDT0=    0
 Symmetry not used in FoFCou.
 Requested convergence on RMS density matrix=1.00D-08 within 300 cycles.
 Requested convergence on MAX density matrix=1.00D-06.
 Requested convergence on             energy=1.00D-06.
 No special actions if energy rises.
 Inv3:  Mode=1 IEnd=     7508172.
 Iteration    1 A*A^-1 deviation from unit magnitude is 3.44D-15 for   1562.
 Iteration    1 A*A^-1 deviation from orthogonality  is 2.59D-15 for   1151    777.
 Iteration    1 A^-1*A deviation from unit magnitude is 3.44D-15 for   1562.
 Iteration    1 A^-1*A deviation from orthogonality  is 7.56D-14 for   1183   1151.
 Error on total polarization charges =  0.01029
 SCF Done:  E(RwB97XD) =  -491.461457186     A.U. after   16 cycles
            NFock= 16  Conv=0.51D-08     -V/T= 2.0036

 **********************************************************************

            Population analysis using the SCF Density.

 **********************************************************************

 Alpha  occ. eigenvalues --  -14.56698 -14.52890 -14.49718 -14.46980 -14.46327
 Alpha  occ. eigenvalues --  -10.38047 -10.35755 -10.33641 -10.33610 -10.32980
 Alpha  occ. eigenvalues --   -6.94106  -1.24957  -1.06580  -1.03983  -1.03198
 Alpha  occ. eigenvalues --   -0.94848  -0.86966  -0.78820  -0.74039  -0.72253
 Alpha  occ. eigenvalues --   -0.65601  -0.62726  -0.62282  -0.57603  -0.55636
 Alpha  occ. eigenvalues --   -0.53779  -0.53271  -0.48900  -0.48123  -0.48018
 Alpha  occ. eigenvalues --   -0.46742  -0.45421  -0.44739  -0.44468  -0.41794
 Alpha  occ. eigenvalues --   -0.39055  -0.38376
 Alpha virt. eigenvalues --   -0.07249   0.02685   0.03209   0.05267   0.05384
 Alpha virt. eigenvalues --    0.05970   0.06294   0.07471   0.07874   0.08239
 Alpha virt. eigenvalues --    0.08566   0.09470   0.09686   0.10045   0.10984
 Alpha virt. eigenvalues --    0.12484   0.12677   0.13303   0.14593   0.14631
 Alpha virt. eigenvalues --    0.15197   0.15542   0.16187   0.16540   0.17508
 Alpha virt. eigenvalues --    0.17602   0.18610   0.19002   0.19843   0.19974
 Alpha virt. eigenvalues --    0.20451   0.21413   0.23043   0.23287   0.23454
 Alpha virt. eigenvalues --    0.23572   0.23746   0.24134   0.24310   0.24498
 Alpha virt. eigenvalues --    0.26764   0.27607   0.28492   0.29141   0.29795
 Alpha virt. eigenvalues --    0.30822   0.30850   0.31465   0.31966   0.32251
 Alpha virt. eigenvalues --    0.32592   0.32700   0.33541   0.34904   0.36500
 Alpha virt. eigenvalues --    0.37425   0.37571   0.38118   0.39247   0.40046
 Alpha virt. eigenvalues --    0.41226   0.41743   0.43948   0.45301   0.46034
 Alpha virt. eigenvalues --    0.48456   0.49117   0.50288   0.52210   0.53560
 Alpha virt. eigenvalues --    0.54684   0.55144   0.57365   0.60904   0.61306
 Alpha virt. eigenvalues --    0.64374   0.64513   0.66618   0.68995   0.69322
 Alpha virt. eigenvalues --    0.69817   0.72301   0.73382   0.74312   0.76830
 Alpha virt. eigenvalues --    0.77512   0.78930   0.79917   0.82164   0.85514
 Alpha virt. eigenvalues --    0.86220   0.89120   0.89379   0.89551   0.90058
 Alpha virt. eigenvalues --    0.91040   0.91597   0.91875   0.94287   0.95103
 Alpha virt. eigenvalues --    0.96218   0.96953   0.97922   0.98380   1.00149
 Alpha virt. eigenvalues --    1.02848   1.03622   1.06746   1.07803   1.08342
 Alpha virt. eigenvalues --    1.09307   1.10374   1.11281   1.19887   1.20909
 Alpha virt. eigenvalues --    1.22925   1.27425   1.28330   1.33359   1.33424
 Alpha virt. eigenvalues --    1.34334   1.35417   1.35810   1.37490   1.38404
 Alpha virt. eigenvalues --    1.41565   1.46162   1.48430   1.49235   1.51212
 Alpha virt. eigenvalues --    1.52689   1.54807   1.57401   1.57874   1.60376
 Alpha virt. eigenvalues --    1.61543   1.65065   1.65244   1.68246   1.71217
 Alpha virt. eigenvalues --    1.75457   1.75959   1.76927   1.81651   1.82883
 Alpha virt. eigenvalues --    1.89344   1.95633   1.96966   1.97513   2.03384
 Alpha virt. eigenvalues --    2.04888   2.09019   2.10281   2.14217   2.14620
 Alpha virt. eigenvalues --    2.14855   2.15268   2.18134   2.18698   2.23155
 Alpha virt. eigenvalues --    2.25878   2.36295   2.37449   2.38883   2.44549
 Alpha virt. eigenvalues --    2.49450   2.53118   2.54406   2.55246   2.57389
 Alpha virt. eigenvalues --    2.58478   2.59405   2.63942   2.67768   2.70585
 Alpha virt. eigenvalues --    2.75293   2.75639   2.76359   2.76897   2.82361
 Alpha virt. eigenvalues --    2.83291   2.86872   2.88190   2.89035   2.94550
 Alpha virt. eigenvalues --    2.95468   2.97137   2.99053   3.00124   3.02665
 Alpha virt. eigenvalues --    3.03919   3.05221   3.07958   3.13715   3.17443
 Alpha virt. eigenvalues --    3.20186   3.23788   3.30344   3.46777   3.51053
 Alpha virt. eigenvalues --    3.56322   3.64343   3.71226   3.77990   3.78456
 Alpha virt. eigenvalues --    3.83793   3.88733   4.00506   4.05192   4.06897
 Alpha virt. eigenvalues --    4.08572   4.09929   4.12973   4.14123   4.16192
 Alpha virt. eigenvalues --    4.28059   4.67172   4.71218   4.71536   4.91190
 Alpha virt. eigenvalues --    5.06766   5.71143  14.81440  23.89594  24.03646
 Alpha virt. eigenvalues --   24.17313  24.21676  24.32097  35.52899  35.60048
 Alpha virt. eigenvalues --   35.76479  35.94812  35.97427
          Condensed to atoms (all electrons):
               1          2          3          4          5          6
     1  C    9.214248   0.240490  -3.001662   0.367985  -0.405580   0.104715
     2  H    0.240490   0.403942   0.135971  -0.048636   0.036465  -0.023954
     3  C   -3.001662   0.135971   9.030642  -0.528454   0.569795   0.106510
     4  N    0.367985  -0.048636  -0.528454   6.817223  -0.107577   0.231495
     5  N   -0.405580   0.036465   0.569795  -0.107577   6.939965  -0.068331
     6  N    0.104715  -0.023954   0.106510   0.231495  -0.068331   6.852783
     7  B    0.033671  -0.017962   0.262191   0.039655  -0.036662  -0.096724
     8  C   -0.241174  -0.005338   0.114905   0.132233   0.022228  -0.036609
     9  H   -0.025287  -0.000419   0.004749  -0.017214  -0.007095  -0.001612
    10  H   -0.022077  -0.000389   0.003298  -0.029008   0.004874  -0.002259
    11  H    0.085592  -0.015124  -0.046473  -0.043694  -0.014894   0.014425
    12  C   -0.383758   0.009306   0.236691  -0.029249   0.031945  -0.054087
    13  N    0.004314  -0.000224  -0.021297   0.000504   0.000900   0.001878
    14  C   -0.016232   0.004103  -0.072231   0.016834  -0.010107   0.020169
    15  N   -0.018169   0.002143   0.028679  -0.001197   0.000395  -0.000556
               7          8          9         10         11         12
     1  C    0.033671  -0.241174  -0.025287  -0.022077   0.085592  -0.383758
     2  H   -0.017962  -0.005338  -0.000419  -0.000389  -0.015124   0.009306
     3  C    0.262191   0.114905   0.004749   0.003298  -0.046473   0.236691
     4  N    0.039655   0.132233  -0.017214  -0.029008  -0.043694  -0.029249
     5  N   -0.036662   0.022228  -0.007095   0.004874  -0.014894   0.031945
     6  N   -0.096724  -0.036609  -0.001612  -0.002259   0.014425  -0.054087
     7  B    3.607159   0.003208   0.000598   0.000529   0.001444   0.230549
     8  C    0.003208   5.193694   0.410171   0.411473   0.371633   0.000478
     9  H    0.000598   0.410171   0.474737  -0.046015  -0.020628   0.000135
    10  H    0.000529   0.411473  -0.046015   0.475766  -0.020884   0.000086
    11  H    0.001444   0.371633  -0.020628  -0.020884   0.500194  -0.001839
    12  C    0.230549   0.000478   0.000135   0.000086  -0.001839   5.557469
    13  N   -0.056583  -0.000141  -0.000011  -0.000011   0.000033   0.784067
    14  C    0.224432   0.001433  -0.000130  -0.000177  -0.000474  -0.147034
    15  N   -0.058810   0.000068  -0.000004  -0.000000   0.000067   0.013270
              13         14         15
     1  C    0.004314  -0.016232  -0.018169
     2  H   -0.000224   0.004103   0.002143
     3  C   -0.021297  -0.072231   0.028679
     4  N    0.000504   0.016834  -0.001197
     5  N    0.000900  -0.010107   0.000395
     6  N    0.001878   0.020169  -0.000556
     7  B   -0.056583   0.224432  -0.058810
     8  C   -0.000141   0.001433   0.000068
     9  H   -0.000011  -0.000130  -0.000004
    10  H   -0.000011  -0.000177  -0.000000
    11  H    0.000033  -0.000474   0.000067
    12  C    0.784067  -0.147034   0.013270
    13  N    6.468304  -0.001392   0.000782
    14  C   -0.001392   5.405371   0.761369
    15  N    0.000782   0.761369   6.499522
 Mulliken charges:
               1
     1  C    0.062922
     2  H    0.279625
     3  C   -0.823315
     4  N    0.199099
     5  N    0.043677
     6  N   -0.047843
     7  B    0.863303
     8  C   -0.378261
     9  H    0.228023
    10  H    0.224795
    11  H    0.190622
    12  C   -0.248030
    13  N   -0.181123
    14  C   -0.185936
    15  N   -0.227559
 Sum of Mulliken charges =  -0.00000
 Mulliken charges with hydrogens summed into heavy atoms:
               1
     1  C    0.342547
     3  C   -0.823315
     4  N    0.199099
     5  N    0.043677
     6  N   -0.047843
     7  B    0.863303
     8  C    0.265179
    12  C   -0.248030
    13  N   -0.181123
    14  C   -0.185936
    15  N   -0.227559
 Electronic spatial extent (au):  <R**2>=           4930.1599
 Charge=             -0.0000 electrons
 Dipole moment (field-independent basis, Debye):
    X=             -4.5973    Y=              8.0658    Z=              0.5199  Tot=              9.2986
 Quadrupole moment (field-independent basis, Debye-Ang):
   XX=            -90.5690   YY=            -53.2913   ZZ=            -80.5527
   XY=             22.2628   XZ=             -6.5222   YZ=              3.1681
 Traceless Quadrupole moment (field-independent basis, Debye-Ang):
   XX=            -15.7647   YY=             21.5130   ZZ=             -5.7484
   XY=             22.2628   XZ=             -6.5222   YZ=              3.1681
 Octapole moment (field-independent basis, Debye-Ang**2):
  XXX=           -758.5481  YYY=             25.1398  ZZZ=           -261.5995  XYY=           -228.2187
  XXY=             67.1031  XXZ=           -111.7172  XZZ=           -290.3551  YZZ=            -21.1941
  YYZ=            -49.7068  XYZ=              5.9788
 Hexadecapole moment (field-independent basis, Debye-Ang**3):
 XXXX=          -5361.3988 YYYY=          -1147.2585 ZZZZ=          -1657.5186 XXXY=            571.7359
 XXXZ=          -1074.5520 YYYX=            405.5794 YYYZ=             79.5044 ZZZX=          -1204.2089
 ZZZY=             72.0660 XXYY=          -1206.6193 XXZZ=          -1383.2691 YYZZ=           -379.3153
 XXYZ=             29.1801 YYXZ=           -242.3254 ZZXY=             47.6235
 N-N= 4.896043882128D+02 E-N=-2.123384400350D+03  KE= 4.896967783735D+02
 Breneman (CHELPG) radii used.
 Generate Potential Derived Charges using the Breneman model, NDens= 1.
 Grid spacing= 0.300 Box extension= 2.800
 NStep X,Y,Z=   36     43     37   Total possible points=       57276
 Number of Points to Fit=   11671

 **********************************************************************

            Electrostatic Properties Using The SCF Density.

 **********************************************************************

       Atomic Center    1 is at   2.593004  1.628644  1.172944
       Atomic Center    2 is at   2.597790  2.131622  2.126554
       Atomic Center    3 is at   3.167635  0.432772  0.751967
       Atomic Center    4 is at   1.967263  2.108724  0.104638
       Atomic Center    5 is at   2.125466  1.271343 -0.957628
       Atomic Center    6 is at   2.833648  0.280509 -0.578508
       Atomic Center    7 is at   3.995937 -0.552454  1.527981
       Atomic Center    8 is at   1.198505  3.332088 -0.049364
       Atomic Center    9 is at   1.689522  3.978864 -0.775141
       Atomic Center   10 is at   0.195988  3.083734 -0.394021
       Atomic Center   11 is at   1.145432  3.831141  0.915903
       Atomic Center   12 is at   4.550411 -1.837625  0.888500
       Atomic Center   13 is at   4.972179 -2.804018  0.424747
       Atomic Center   14 is at   4.312546 -0.288229  3.015897
       Atomic Center   15 is at   4.529699 -0.059385  4.124046
   11671 points will be used for fitting atomic charges
 Fitting point charges to electrostatic potential
 Charges from ESP fit, RMS=   0.00438 RRMS=   0.13098:
 ESP charges:
               1
     1  C   -0.344738
     2  H    0.202040
     3  C    0.176045
     4  N    0.671989
     5  N   -0.308714
     6  N   -0.293119
     7  B    0.232357
     8  C   -0.610305
     9  H    0.201266
    10  H    0.198655
    11  H    0.218950
    12  C    0.251682
    13  N   -0.423956
    14  C    0.251116
    15  N   -0.423267
 Sum of ESP charges =  -0.00000
 ESP charges with hydrogens summed into heavy atoms:
               1
     1  C   -0.142698
     3  C    0.176045
     4  N    0.671989
     5  N   -0.308714
     6  N   -0.293119
     7  B    0.232357
     8  C    0.008565
    12  C    0.251682
    13  N   -0.423956
    14  C    0.251116
    15  N   -0.423267
 Charge=  -0.00000 Dipole=    -4.5459     7.9592     0.4800 Tot=     9.1785
 -----------------------------------------------------------------

              Electrostatic Properties (Atomic Units)

 -----------------------------------------------------------------
    Center     Electric         -------- Electric Field --------
               Potential          X             Y             Z
 -----------------------------------------------------------------
    1 Atom    -14.666256
    2 Atom     -0.997723
    3 Atom    -14.720367
    4 Atom    -18.246470
    5 Atom    -18.313002
    6 Atom    -18.346605
    7 Atom    -11.365488
    8 Atom    -14.675344
    9 Atom     -1.043644
   10 Atom     -1.043694
   11 Atom     -1.030273
   12 Atom    -14.754198
   13 Atom    -18.403305
   14 Atom    -14.740327
   15 Atom    -18.387763
 -----------------------------------------------------------------
 Unable to Open any file for archive entry.
 1\1\GINC-IRENE4129\SP\RwB97XD\GenECP\C5H4B1N5\PENASFRA\08-Apr-2024\0\\
 # wb97xd/genecp scrf=(solvent=toluene,pcm) nosymm pop=(chelpg) scfcyc=
 300\\cn_metriazole_chelpg\\0,1\C,0,2.593004,1.628644,1.172944\H,0,2.59
 779,2.131622,2.126554\C,0,3.167635,0.432772,0.751967\N,0,1.967263,2.10
 8724,0.104638\N,0,2.125466,1.271343,-0.957628\N,0,2.833648,0.280509,-0
 .578508\B,0,3.995937,-0.552454,1.527981\C,0,1.198505,3.332088,-0.04936
 4\H,0,1.689522,3.978864,-0.775141\H,0,0.195988,3.083734,-0.394021\H,0,
 1.145432,3.831141,0.915903\C,0,4.550411,-1.837625,0.8885\N,0,4.972179,
 -2.804018,0.424747\C,0,4.312546,-0.288229,3.015897\N,0,4.529699,-0.059
 385,4.124046\\Version=AS64L-G16RevC.02\HF=-491.4614572\RMSD=5.127e-09\
 Dipole=-1.8087211,3.1733415,0.2045267\Quadrupole=-11.720634,15.9944001
 ,-4.2737661,16.5518391,-4.8491225,2.3554154\PG=C01 [X(C5H4B1N5)]\\@
 The archive entry for this job was punched.


 Time has a wonderful way of weeding out the trivial.
                                -- Richard Ben Sapir
 Job cpu time:       0 days  0 hours 24 minutes 43.2 seconds.
 Elapsed time:       0 days  0 hours  0 minutes 15.2 seconds.
 File lengths (MBytes):  RWF=     85 Int=      0 D2E=      0 Chk=      6 Scr=      1
 Normal termination of Gaussian 16 at Mon Apr  8 16:51:35 2024.
