 Entering Gaussian System, Link 0=/ccc/products/gaussian-16-C.02/system/default/g16/g16
 Input=cyclo_metriazole_chelpg.gjf
 Output=cyclo_metriazole_chelpg.log
 Initial command:
 /ccc/products/gaussian-16-C.02/system/default/g16/l1.exe "/ccc/scratch/cont003/gen7343/penasfra/flp/b-n_flp/cyclo_metriazole/Reactant/Gau-75604.inp" -scrdir="/ccc/scratch/cont003/gen7343/penasfra/flp/b-n_flp/cyclo_metriazole/Reactant/"
 Entering Link 1 = /ccc/products/gaussian-16-C.02/system/default/g16/l1.exe PID=     75654.
  
 Copyright (c) 1988-2021, Gaussian, Inc.  All Rights Reserved.
  
 This is part of the Gaussian(R) 16 program.  It is based on
 the Gaussian(R) 09 system (copyright 2009, Gaussian, Inc.),
 the Gaussian(R) 03 system (copyright 2003, Gaussian, Inc.),
 the Gaussian(R) 98 system (copyright 1998, Gaussian, Inc.),
 the Gaussian(R) 94 system (copyright 1995, Gaussian, Inc.),
 the Gaussian 92(TM) system (copyright 1992, Gaussian, Inc.),
 the Gaussian 90(TM) system (copyright 1990, Gaussian, Inc.),
 the Gaussian 88(TM) system (copyright 1988, Gaussian, Inc.),
 the Gaussian 86(TM) system (copyright 1986, Carnegie Mellon
 University), and the Gaussian 82(TM) system (copyright 1983,
 Carnegie Mellon University). Gaussian is a federally registered
 trademark of Gaussian, Inc.
  
 This software contains proprietary and confidential information,
 including trade secrets, belonging to Gaussian, Inc.
  
 This software is provided under written license and may be
 used, copied, transmitted, or stored only in accord with that
 written license.
  
 The following legend is applicable only to US Government
 contracts under FAR:
  
                    RESTRICTED RIGHTS LEGEND
  
 Use, reproduction and disclosure by the US Government is
 subject to restrictions as set forth in subparagraphs (a)
 and (c) of the Commercial Computer Software - Restricted
 Rights clause in FAR 52.227-19.
  
 Gaussian, Inc.
 340 Quinnipiac St., Bldg. 40, Wallingford CT 06492
  
  
 ---------------------------------------------------------------
 Warning -- This program may not be used in any manner that
 competes with the business of Gaussian, Inc. or will provide
 assistance to any competitor of Gaussian, Inc.  The licensee
 of this program is prohibited from giving any competitor of
 Gaussian, Inc. access to this program.  By using this program,
 the user acknowledges that Gaussian, Inc. is engaged in the
 business of creating and licensing software in the field of
 computational chemistry and represents and warrants to the
 licensee that it is not a competitor of Gaussian, Inc. and that
 it will not use this program in any manner prohibited above.
 ---------------------------------------------------------------
  

 Cite this work as:
 Gaussian 16, Revision C.02,
 M. J. Frisch, G. W. Trucks, H. B. Schlegel, G. E. Scuseria, 
 M. A. Robb, J. R. Cheeseman, G. Scalmani, V. Barone, 
 G. A. Petersson, H. Nakatsuji, X. Li, M. Caricato, A. V. Marenich, 
 J. Bloino, B. G. Janesko, R. Gomperts, B. Mennucci, H. P. Hratchian, 
 J. V. Ortiz, A. F. Izmaylov, J. L. Sonnenberg, D. Williams-Young, 
 F. Ding, F. Lipparini, F. Egidi, J. Goings, B. Peng, A. Petrone, 
 T. Henderson, D. Ranasinghe, V. G. Zakrzewski, J. Gao, N. Rega, 
 G. Zheng, W. Liang, M. Hada, M. Ehara, K. Toyota, R. Fukuda, 
 J. Hasegawa, M. Ishida, T. Nakajima, Y. Honda, O. Kitao, H. Nakai, 
 T. Vreven, K. Throssell, J. A. Montgomery, Jr., J. E. Peralta, 
 F. Ogliaro, M. J. Bearpark, J. J. Heyd, E. N. Brothers, K. N. Kudin, 
 V. N. Staroverov, T. A. Keith, R. Kobayashi, J. Normand, 
 K. Raghavachari, A. P. Rendell, J. C. Burant, S. S. Iyengar, 
 J. Tomasi, M. Cossi, J. M. Millam, M. Klene, C. Adamo, R. Cammi, 
 J. W. Ochterski, R. L. Martin, K. Morokuma, O. Farkas, 
 J. B. Foresman, and D. J. Fox, Gaussian, Inc., Wallingford CT, 2019.
 
 ******************************************
 Gaussian 16:  AS64L-G16RevC.02  7-Dec-2021
                 9-Apr-2024 
 ******************************************
 %nprocshared=128
 Will use up to  128 processors via shared memory.
 %mem=30GB
 %chk=cyclo_metriazole_chelpg.chk
 ----------------------------------------------------------------------
 # wb97xd/genecp scrf=(solvent=toluene,pcm) nosymm pop=(chelpg) scfcyc=
 300
 ----------------------------------------------------------------------
 1/38=1,172=1/1;
 2/12=2,15=1,17=6,18=5,40=1/2;
 3/5=7,11=2,16=1,17=8,25=1,30=1,70=2201,72=13,74=-58/1,2,3;
 4//1;
 5/5=2,7=300,38=5,53=13/2;
 6/7=2,8=2,9=2,10=2,15=8,20=3,28=1/1,2;
 99/5=1,9=1/99;
 -----------------------
 cyclo_metriazole_chelpg
 -----------------------
 Symbolic Z-matrix:
 Charge =  0 Multiplicity = 1
 C                     2.1808    0.58798  -0.17927 
 H                     1.64817   1.43832   0.21476 
 C                     3.12954  -0.25111   0.37762 
 N                     1.9933    0.14385  -1.4299 
 N                     2.77713  -0.92685  -1.668 
 N                     3.45328  -1.16491  -0.59918 
 C                     1.09743   0.6404   -2.45691 
 H                     1.28744   1.69843  -2.63722 
 H                     1.29556   0.07383  -3.36427 
 H                     0.05983   0.49541  -2.15456 
 C                     4.87147  -1.27449   2.18869 
 C                     3.38512   0.89094   2.82929 
 C                     4.9879   -1.53821   3.69807 
 C                     3.58475   0.48684   4.29935 
 C                     4.90776  -0.24984   4.51973 
 H                     5.91888  -2.06839   3.92331 
 H                     4.17341  -2.20329   4.01225 
 H                     3.53253   1.36702   4.94843 
 H                     2.76288  -0.17175   4.6078 
 H                     5.0302   -0.47908   5.58324 
 H                     5.74132   0.41033   4.24349 
 B                     3.75975  -0.23783   1.79432 
 H                     4.08554   1.71154   2.59375 
 H                     2.38717   1.31482   2.67101 
 H                     5.80627  -0.80204   1.83765 
 H                     4.79802  -2.20349   1.61624 
 
                          Input orientation:                          
 ---------------------------------------------------------------------
 Center     Atomic      Atomic             Coordinates (Angstroms)
 Number     Number       Type             X           Y           Z
 ---------------------------------------------------------------------
      1          6           0        2.180801    0.587984   -0.179265
      2          1           0        1.648170    1.438319    0.214757
      3          6           0        3.129540   -0.251109    0.377623
      4          7           0        1.993299    0.143851   -1.429895
      5          7           0        2.777127   -0.926846   -1.667995
      6          7           0        3.453282   -1.164911   -0.599177
      7          6           0        1.097433    0.640402   -2.456906
      8          1           0        1.287435    1.698425   -2.637220
      9          1           0        1.295559    0.073833   -3.364267
     10          1           0        0.059827    0.495414   -2.154562
     11          6           0        4.871470   -1.274488    2.188688
     12          6           0        3.385115    0.890936    2.829294
     13          6           0        4.987900   -1.538208    3.698067
     14          6           0        3.584752    0.486841    4.299352
     15          6           0        4.907763   -0.249841    4.519729
     16          1           0        5.918875   -2.068389    3.923314
     17          1           0        4.173407   -2.203287    4.012254
     18          1           0        3.532528    1.367021    4.948433
     19          1           0        2.762883   -0.171748    4.607803
     20          1           0        5.030200   -0.479075    5.583241
     21          1           0        5.741320    0.410326    4.243494
     22          5           0        3.759748   -0.237829    1.794317
     23          1           0        4.085538    1.711540    2.593748
     24          1           0        2.387174    1.314817    2.671010
     25          1           0        5.806271   -0.802039    1.837645
     26          1           0        4.798017   -2.203490    1.616237
 ---------------------------------------------------------------------
                    Distance matrix (angstroms):
                    1          2          3          4          5
     1  C    0.000000
     2  H    1.077970   0.000000
     3  C    1.383585   2.252809   0.000000
     4  N    1.340331   2.121236   2.171211   0.000000
     5  N    2.206044   3.226965   2.182972   1.348136   0.000000
     6  N    2.206394   3.270738   1.376220   2.129437   1.286947
     7  C    2.522713   2.842141   3.599834   1.450479   2.428995
     8  H    2.841254   2.886444   4.035259   2.091071   3.170272
     9  H    3.345481   3.846501   4.179810   2.057556   2.464496
    10  H    2.899810   3.004260   4.048752   2.094529   3.105365
    11  C    4.039270   4.652460   2.713223   4.836290   4.402401
    12  C    3.254778   3.186285   2.716666   4.542684   4.888721
    13  C    5.237767   5.669829   4.016899   6.171949   5.835743
    14  C    4.694605   4.619478   4.016435   5.956059   6.185467
    15  C    5.497164   5.657527   4.507674   6.636800   6.579200
    16  H    6.153102   6.655022   4.863622   6.997214   6.514326
    17  H    5.415764   5.836017   4.255726   6.314975   5.986997
    18  H    5.359790   5.095447   4.865496   6.674462   7.043407
    19  H    4.881806   4.809756   4.246782   6.094724   6.321077
    20  H    6.516453   6.628359   5.546435   7.667782   7.606396
    21  H    5.680639   5.834498   4.712096   6.804852   6.746864
    22  B    2.658960   3.124619   1.550600   3.696155   3.664409
    23  H    3.546830   3.416871   3.110809   4.798418   5.180297
    24  H    2.948719   2.567987   2.874518   4.282957   4.899396
    25  H    4.375400   4.994274   3.098399   5.109822   4.634739
    26  H    4.226816   5.014824   2.851275   4.759766   4.062019
                    6          7          8          9         10
     6  N    0.000000
     7  C    3.501476   0.000000
     8  H    4.128342   1.089966   0.000000
     9  H    3.719674   1.087915   1.779877   0.000000
    10  H    4.085516   1.090440   1.785277   1.779930   0.000000
    11  C    3.129769   6.284242   6.706184   6.740951   6.719247
    12  C    3.998195   5.765429   5.910590   6.587420   6.004398
    13  C    4.578287   7.600379   8.019046   8.130721   7.916741
    14  C    5.171185   7.201205   7.406864   8.008872   7.353786
    15  C    5.399636   7.999036   8.253753   8.678144   8.282756
    16  H    5.229565   8.443403   8.870160   8.892300   8.822817
    17  H    4.781433   7.707024   8.232114   8.238953   7.888862
    18  H    6.098601   7.829221   7.917853   8.705018   7.954363
    19  H    5.345621   7.303658   7.626588   8.109701   7.313084
    20  H    6.417113   9.020191   9.291167   9.711393   9.248126
    21  H    5.582827   8.155610   8.297018   8.817939   8.556969
    22  B    2.584998   5.092358   5.431384   5.725413   5.460834
    23  H    4.343787   5.965334   5.932333   6.779676   6.342851
    24  H    4.240255   5.330459   5.434509   6.257494   5.419789
    25  H    3.406807   6.534291   6.833492   6.940718   7.116370
    26  H    2.791956   6.194557   6.755814   6.500679   6.629740
                   11         12         13         14         15
    11  C    0.000000
    12  C    2.703459   0.000000
    13  C    1.536662   3.037174   0.000000
    14  C    3.035264   1.537601   2.535979   0.000000
    15  C    2.546561   2.545074   1.530176   1.530237   0.000000
    16  H    2.176296   4.046532   1.094780   3.481197   2.164527
    17  H    2.162256   3.405145   1.097471   2.768705   2.147734
    18  H    4.048028   2.176956   3.481649   1.094875   2.165479
    19  H    3.393272   2.163230   2.765056   1.097429   2.148107
    20  H    3.490110   3.488188   2.162737   2.161177   1.094804
    21  H    2.795973   2.789740   2.159147   2.158648   1.098610
    22  B    1.570387   1.576591   2.612203   2.613613   2.957356
    23  H    3.114181   1.104294   3.548893   2.158648   2.869229
    24  H    3.620616   1.095726   3.994793   2.184316   3.495609
    25  H    1.104668   3.116333   2.161677   3.557578   2.881981
    26  H    1.093682   3.611547   2.193780   3.988609   3.501293
                   16         17         18         19         20
    16  H    0.000000
    17  H    1.752931   0.000000
    18  H    4.306688   3.746232   0.000000
    19  H    3.745138   2.543896   1.753908   0.000000
    20  H    2.463944   2.484955   2.460503   2.487299   0.000000
    21  H    2.505608   3.056599   2.508180   3.056570   1.758308
    22  B    3.541950   2.992220   3.546212   2.985600   4.003523
    23  H    4.406442   4.164823   2.443165   3.058203   3.824689
    24  H    5.048491   4.167328   2.549748   2.470263   4.322583
    25  H    2.442609   3.059194   4.421734   4.163322   3.838760
    26  H    2.568497   2.476093   5.045150   4.149604   4.331817
                   21         22         23         24         25
    21  H    0.000000
    22  B    3.216396   0.000000
    23  H    2.675151   2.131964   0.000000
    24  H    3.813280   2.250169   1.745795   0.000000
    25  H    2.694839   2.123315   3.138581   4.106799   0.000000
    26  H    3.824178   2.230143   4.097635   4.393540   1.740593
                   26
    26  H    0.000000
 Symmetry turned off by external request.
 Stoichiometry    C8H14BN3
 Framework group  C1[X(C8H14BN3)]
 Deg. of freedom    72
 Full point group                 C1      NOp   1
 Rotational constants (GHZ):           2.6357649           0.4463470           0.3903898
 General basis read from cards:  (5D, 7F)
 ======================================================================================================
                                       Pseudopotential Parameters
 ======================================================================================================
  Center     Atomic      Valence      Angular      Power
  Number     Number     Electrons     Momentum     of R      Exponent        Coefficient   SO-Coeffient
 ======================================================================================================
    1          6
                                   No pseudopotential on this center.
    2          1
                                   No pseudopotential on this center.
    3          6
                                   No pseudopotential on this center.
    4          7
                                   No pseudopotential on this center.
    5          7
                                   No pseudopotential on this center.
    6          7
                                   No pseudopotential on this center.
    7          6
                                   No pseudopotential on this center.
    8          1
                                   No pseudopotential on this center.
    9          1
                                   No pseudopotential on this center.
   10          1
                                   No pseudopotential on this center.
   11          6
                                   No pseudopotential on this center.
   12          6
                                   No pseudopotential on this center.
   13          6
                                   No pseudopotential on this center.
   14          6
                                   No pseudopotential on this center.
   15          6
                                   No pseudopotential on this center.
   16          1
                                   No pseudopotential on this center.
   17          1
                                   No pseudopotential on this center.
   18          1
                                   No pseudopotential on this center.
   19          1
                                   No pseudopotential on this center.
   20          1
                                   No pseudopotential on this center.
   21          1
                                   No pseudopotential on this center.
   22          5
                                   No pseudopotential on this center.
   23          1
                                   No pseudopotential on this center.
   24          1
                                   No pseudopotential on this center.
   25          1
                                   No pseudopotential on this center.
   26          1
                                   No pseudopotential on this center.
 ======================================================================================================
   362 basis functions,   558 primitive gaussians,   374 cartesian basis functions
    44 alpha electrons       44 beta electrons
       nuclear repulsion energy       664.4846015043 Hartrees.
 NAtoms=   26 NActive=   26 NUniq=   26 SFac= 1.00D+00 NAtFMM=   60 NAOKFM=F Big=F
 Integral buffers will be    131072 words long.
 Raffenetti 2 integral format.
 Two-electron integral symmetry is turned off.
 Nuclear repulsion after empirical dispersion term =      664.4675537085 Hartrees.
 ------------------------------------------------------------------------------
 Polarizable Continuum Model (PCM)
 =================================
 Model                : PCM.
 Atomic radii         : UFF (Universal Force Field).
 Polarization charges : Total charges.
 Charge compensation  : None.
 Solution method      : On-the-fly selection.
 Cavity type          : Scaled VdW (van der Waals Surface) (Alpha=1.100).
 Cavity algorithm     : GePol (No added spheres)
                        Default sphere list used, NSphG=   26.
                        Lebedev-Laikov grids with approx.  5.0 points / Ang**2.
                        Smoothing algorithm: York/Karplus (Gamma=1.0000).
                        Polarization charges: spherical gaussians, with
                                              point-specific exponents (IZeta= 3).
                        Self-potential: point-specific (ISelfS= 7).
                        Self-field    : sphere-specific E.n sum rule (ISelfD= 2).
 Solvent              : Toluene, Eps=   2.374100 Eps(inf)=   2.238315
 ------------------------------------------------------------------------------
 One-electron integrals computed using PRISM.
   1 Symmetry operations used in ECPInt.
 ECPInt:  NShTT=   10153 NPrTT=   32643 LenC2=    9475 LenP2D=   22782.
 LDataN:  DoStor=T MaxTD1= 4 Len=   56
 Number of processors reduced to 119 by ecpmxn.
 NBasis=   362 RedAO= T EigKep=  3.27D-06  NBF=   362
 NBsUse=   362 1.00D-06 EigRej= -1.00D+00 NBFU=   362
 ExpMin= 3.15D-02 ExpMax= 6.29D+03 ExpMxC= 9.49D+02 IAcc=3 IRadAn=         5 AccDes= 0.00D+00
 Harris functional with IExCor= 4639 and IRadAn=       5 diagonalized for initial guess.
 HarFok:  IExCor= 4639 AccDes= 0.00D+00 IRadAn=         5 IDoV= 1 UseB2=F ITyADJ=14
 ICtDFT=  3500011 ScaDFX=  1.000000  1.000000  1.000000  1.000000
 FoFCou: FMM=F IPFlag=           0 FMFlag=      100000 FMFlg1=           0
         NFxFlg=           0 DoJE=T BraDBF=F KetDBF=T FulRan=T
         wScrn=  0.000000 ICntrl=       500 IOpCl=  0 I1Cent=   200000004 NGrid=           0
         NMat0=    1 NMatS0=      1 NMatT0=    0 NMatD0=    1 NMtDS0=    0 NMtDT0=    0
 Symmetry not used in FoFCou.
 Requested convergence on RMS density matrix=1.00D-08 within 300 cycles.
 Requested convergence on MAX density matrix=1.00D-06.
 Requested convergence on             energy=1.00D-06.
 No special actions if energy rises.
 Inv3:  Mode=1 IEnd=    11186283.
 Iteration    1 A*A^-1 deviation from unit magnitude is 5.44D-15 for   1931.
 Iteration    1 A*A^-1 deviation from orthogonality  is 3.72D-15 for   1931   1690.
 Iteration    1 A^-1*A deviation from unit magnitude is 5.44D-15 for   1931.
 Iteration    1 A^-1*A deviation from orthogonality  is 3.60D-15 for   1625   1597.
 Error on total polarization charges =  0.00960
 SCF Done:  E(RwB97XD) =  -502.350847679     A.U. after   15 cycles
            NFock= 15  Conv=0.48D-08     -V/T= 2.0043

 **********************************************************************

            Population analysis using the SCF Density.

 **********************************************************************

 Alpha  occ. eigenvalues --  -14.53356 -14.49503 -14.45748 -10.33823 -10.33667
 Alpha  occ. eigenvalues --  -10.29074 -10.27326 -10.26972 -10.26929 -10.25595
 Alpha  occ. eigenvalues --  -10.24758  -6.83797  -1.21442  -1.02885  -0.91277
 Alpha  occ. eigenvalues --   -0.90374  -0.84330  -0.83071  -0.78442  -0.72884
 Alpha  occ. eigenvalues --   -0.70289  -0.68113  -0.65780  -0.62880  -0.59439
 Alpha  occ. eigenvalues --   -0.56901  -0.54946  -0.54166  -0.52022  -0.51449
 Alpha  occ. eigenvalues --   -0.51236  -0.50279  -0.48162  -0.45583  -0.44593
 Alpha  occ. eigenvalues --   -0.43787  -0.41894  -0.41284  -0.40013  -0.38045
 Alpha  occ. eigenvalues --   -0.37258  -0.36459  -0.34901  -0.34834
 Alpha virt. eigenvalues --    0.02460   0.03720   0.04732   0.05174   0.05708
 Alpha virt. eigenvalues --    0.06081   0.06424   0.07194   0.07965   0.08194
 Alpha virt. eigenvalues --    0.08468   0.08945   0.09164   0.09459   0.10301
 Alpha virt. eigenvalues --    0.11270   0.11601   0.12553   0.13537   0.13797
 Alpha virt. eigenvalues --    0.14169   0.14529   0.15612   0.15650   0.16315
 Alpha virt. eigenvalues --    0.16713   0.17110   0.17672   0.18157   0.18457
 Alpha virt. eigenvalues --    0.18682   0.18744   0.18925   0.19655   0.19911
 Alpha virt. eigenvalues --    0.20439   0.20721   0.20876   0.21041   0.21695
 Alpha virt. eigenvalues --    0.21752   0.22195   0.22360   0.22844   0.23073
 Alpha virt. eigenvalues --    0.23555   0.23923   0.24692   0.24977   0.25513
 Alpha virt. eigenvalues --    0.25649   0.26390   0.26748   0.26893   0.27554
 Alpha virt. eigenvalues --    0.28108   0.28966   0.29409   0.30062   0.30731
 Alpha virt. eigenvalues --    0.31202   0.31623   0.31886   0.32809   0.33051
 Alpha virt. eigenvalues --    0.33670   0.33945   0.34720   0.35721   0.35893
 Alpha virt. eigenvalues --    0.36634   0.37028   0.37261   0.38266   0.39474
 Alpha virt. eigenvalues --    0.39707   0.40617   0.41205   0.41484   0.42258
 Alpha virt. eigenvalues --    0.42695   0.43113   0.43656   0.44428   0.44963
 Alpha virt. eigenvalues --    0.45594   0.46964   0.48495   0.50412   0.51172
 Alpha virt. eigenvalues --    0.52671   0.53664   0.55139   0.55686   0.56453
 Alpha virt. eigenvalues --    0.57446   0.58227   0.59261   0.60257   0.60511
 Alpha virt. eigenvalues --    0.61358   0.64326   0.65964   0.66596   0.66865
 Alpha virt. eigenvalues --    0.68164   0.70551   0.71150   0.71613   0.72336
 Alpha virt. eigenvalues --    0.73108   0.74145   0.75065   0.75348   0.76186
 Alpha virt. eigenvalues --    0.76608   0.77397   0.77628   0.78523   0.79326
 Alpha virt. eigenvalues --    0.81310   0.82853   0.84439   0.84780   0.85654
 Alpha virt. eigenvalues --    0.86002   0.86522   0.86802   0.87292   0.87771
 Alpha virt. eigenvalues --    0.88716   0.89866   0.90716   0.92490   0.93264
 Alpha virt. eigenvalues --    0.95051   0.95858   0.96084   0.97629   0.98042
 Alpha virt. eigenvalues --    1.00469   1.03404   1.05742   1.07310   1.07968
 Alpha virt. eigenvalues --    1.09414   1.11096   1.12143   1.12937   1.13953
 Alpha virt. eigenvalues --    1.16386   1.20080   1.20548   1.24049   1.26820
 Alpha virt. eigenvalues --    1.28926   1.30098   1.32949   1.35170   1.35956
 Alpha virt. eigenvalues --    1.38962   1.39856   1.41489   1.43177   1.44879
 Alpha virt. eigenvalues --    1.47763   1.50716   1.51150   1.52163   1.54034
 Alpha virt. eigenvalues --    1.55677   1.59119   1.60204   1.62110   1.64074
 Alpha virt. eigenvalues --    1.64434   1.65612   1.66675   1.67263   1.67442
 Alpha virt. eigenvalues --    1.68495   1.70371   1.72628   1.72976   1.73701
 Alpha virt. eigenvalues --    1.74020   1.74772   1.76336   1.77830   1.78251
 Alpha virt. eigenvalues --    1.80928   1.81686   1.83427   1.85060   1.85668
 Alpha virt. eigenvalues --    1.85983   1.86900   1.89703   1.90118   1.91633
 Alpha virt. eigenvalues --    1.92492   1.93871   1.95633   1.96619   1.97937
 Alpha virt. eigenvalues --    2.01057   2.03427   2.07215   2.08419   2.09571
 Alpha virt. eigenvalues --    2.12915   2.15292   2.16059   2.16949   2.19602
 Alpha virt. eigenvalues --    2.21130   2.22191   2.24590   2.26905   2.28933
 Alpha virt. eigenvalues --    2.30348   2.32234   2.32887   2.36306   2.37640
 Alpha virt. eigenvalues --    2.39346   2.41548   2.41944   2.43713   2.45956
 Alpha virt. eigenvalues --    2.46559   2.48371   2.50423   2.51780   2.53283
 Alpha virt. eigenvalues --    2.58115   2.59800   2.60471   2.60625   2.62469
 Alpha virt. eigenvalues --    2.64649   2.65078   2.66643   2.67455   2.68315
 Alpha virt. eigenvalues --    2.71474   2.72088   2.74381   2.76852   2.79753
 Alpha virt. eigenvalues --    2.80343   2.80725   2.82213   2.83272   2.84294
 Alpha virt. eigenvalues --    2.85134   2.86757   2.88881   2.89974   2.90018
 Alpha virt. eigenvalues --    2.91853   2.92463   2.94619   2.96041   2.98897
 Alpha virt. eigenvalues --    3.02761   3.03806   3.05877   3.06722   3.08050
 Alpha virt. eigenvalues --    3.10657   3.11363   3.19266   3.20656   3.24644
 Alpha virt. eigenvalues --    3.28196   3.31316   3.42374   3.51785   3.53304
 Alpha virt. eigenvalues --    3.65273   3.69519   3.73588   3.78093   3.79936
 Alpha virt. eigenvalues --    3.81707   3.88666   3.90224   3.93024   3.93508
 Alpha virt. eigenvalues --    3.93972   3.97463   4.03973   4.05093   4.13618
 Alpha virt. eigenvalues --    4.17200   4.17667   4.23673   4.26289   4.32007
 Alpha virt. eigenvalues --    4.44248   4.46639   4.74357   4.94822   5.11242
 Alpha virt. eigenvalues --    5.75449  14.83530  23.93473  23.98432  24.05814
 Alpha virt. eigenvalues --   24.08089  24.08687  24.11905  24.14440  24.25537
 Alpha virt. eigenvalues --   35.56748  35.64236  35.78766
          Condensed to atoms (all electrons):
               1          2          3          4          5          6
     1  C    9.087966   0.422604  -2.173989  -0.036239  -0.044475  -0.187122
     2  H    0.422604   0.471174  -0.013236  -0.109735   0.061711  -0.029208
     3  C   -2.173989  -0.013236   7.956290  -0.207696   0.289784   0.357300
     4  N   -0.036239  -0.109735  -0.207696   7.139271  -0.271445   0.186249
     5  N   -0.044475   0.061711   0.289784  -0.271445   7.128012  -0.092515
     6  N   -0.187122  -0.029208   0.357300   0.186249  -0.092515   6.927508
     7  C   -0.057833  -0.002995  -0.099045   0.094989  -0.000318  -0.001102
     8  H    0.003811  -0.013732   0.008654  -0.020012  -0.029989   0.005896
     9  H   -0.003229   0.000101   0.002414  -0.097506   0.064738   0.001130
    10  H   -0.005453  -0.005649  -0.001115  -0.014667  -0.027338   0.002659
    11  C   -0.458244  -0.014066   0.220068   0.002368  -0.040732   0.019098
    12  C    0.166096   0.011481  -0.212132  -0.002327  -0.002448   0.018870
    13  C   -0.001114  -0.010681  -0.022123   0.009762  -0.030408   0.043330
    14  C   -0.248150  -0.012870   0.150022  -0.007506   0.011200  -0.005453
    15  C    0.023269   0.008235   0.018944  -0.000264  -0.000464  -0.009958
    16  H    0.001339   0.000179  -0.000122   0.000155  -0.000217   0.000337
    17  H   -0.019215  -0.001933  -0.003585   0.001036  -0.003593   0.002693
    18  H    0.001202   0.000172  -0.001936   0.000124   0.000099   0.000162
    19  H   -0.013724  -0.000608   0.000495  -0.000236   0.000079   0.000338
    20  H    0.000124   0.000012   0.001269  -0.000011   0.000082  -0.000064
    21  H   -0.015855  -0.002008  -0.003933   0.000576  -0.001228   0.001770
    22  B   -0.043023  -0.012365   0.359804   0.054068  -0.019183  -0.148801
    23  H   -0.018540   0.001313  -0.004006  -0.001411   0.001812  -0.002377
    24  H   -0.020932  -0.005884   0.029689   0.003047  -0.000127  -0.001189
    25  H   -0.041841  -0.003928  -0.016358   0.004906  -0.011956   0.013283
    26  H   -0.020632  -0.004180   0.001986   0.009035  -0.016393   0.045846
               7          8          9         10         11         12
     1  C   -0.057833   0.003811  -0.003229  -0.005453  -0.458244   0.166096
     2  H   -0.002995  -0.013732   0.000101  -0.005649  -0.014066   0.011481
     3  C   -0.099045   0.008654   0.002414  -0.001115   0.220068  -0.212132
     4  N    0.094989  -0.020012  -0.097506  -0.014667   0.002368  -0.002327
     5  N   -0.000318  -0.029989   0.064738  -0.027338  -0.040732  -0.002448
     6  N   -0.001102   0.005896   0.001130   0.002659   0.019098   0.018870
     7  C    5.212530   0.397263   0.407347   0.401736  -0.002667  -0.004288
     8  H    0.397263   0.527766  -0.021436  -0.051944   0.000510  -0.000970
     9  H    0.407347  -0.021436   0.454102  -0.018895   0.000024  -0.000516
    10  H    0.401736  -0.051944  -0.018895   0.518616   0.000163  -0.000166
    11  C   -0.002667   0.000510   0.000024   0.000163   5.924574  -0.255207
    12  C   -0.004288  -0.000970  -0.000516  -0.000166  -0.255207   5.971016
    13  C    0.001013   0.000096   0.000141   0.000175  -0.317205   0.229161
    14  C   -0.002780   0.000706  -0.000238  -0.000519   0.299584  -0.587527
    15  C   -0.000104  -0.000137  -0.000021  -0.000040  -0.044444   0.075635
    16  H    0.000017  -0.000008  -0.000004   0.000010  -0.059214   0.002428
    17  H    0.000075   0.000021   0.000023   0.000017  -0.110180   0.006960
    18  H    0.000067  -0.000000   0.000003  -0.000011  -0.002842  -0.033036
    19  H   -0.000242  -0.000043  -0.000031   0.000055   0.022181  -0.134552
    20  H    0.000002   0.000002   0.000000  -0.000005   0.014768   0.015081
    21  H   -0.000012   0.000025   0.000003   0.000006  -0.013197  -0.035173
    22  B    0.010093   0.000759   0.000511   0.001562   0.381000   0.412917
    23  H   -0.000867  -0.000210  -0.000167   0.000083   0.016730   0.403766
    24  H    0.000228   0.000762  -0.000074   0.000224   0.013829   0.344237
    25  H    0.000140   0.000115   0.000192  -0.000036   0.467273   0.027544
    26  H    0.000631   0.000131   0.000222   0.000067   0.392685   0.011206
              13         14         15         16         17         18
     1  C   -0.001114  -0.248150   0.023269   0.001339  -0.019215   0.001202
     2  H   -0.010681  -0.012870   0.008235   0.000179  -0.001933   0.000172
     3  C   -0.022123   0.150022   0.018944  -0.000122  -0.003585  -0.001936
     4  N    0.009762  -0.007506  -0.000264   0.000155   0.001036   0.000124
     5  N   -0.030408   0.011200  -0.000464  -0.000217  -0.003593   0.000099
     6  N    0.043330  -0.005453  -0.009958   0.000337   0.002693   0.000162
     7  C    0.001013  -0.002780  -0.000104   0.000017   0.000075   0.000067
     8  H    0.000096   0.000706  -0.000137  -0.000008   0.000021  -0.000000
     9  H    0.000141  -0.000238  -0.000021  -0.000004   0.000023   0.000003
    10  H    0.000175  -0.000519  -0.000040   0.000010   0.000017  -0.000011
    11  C   -0.317205   0.299584  -0.044444  -0.059214  -0.110180  -0.002842
    12  C    0.229161  -0.587527   0.075635   0.002428   0.006960  -0.033036
    13  C    6.439438  -0.309899  -0.234970   0.413510   0.576065   0.020766
    14  C   -0.309899   6.709149  -0.293634   0.005856  -0.044421   0.389064
    15  C   -0.234970  -0.293634   6.047302  -0.054718  -0.020805  -0.056546
    16  H    0.413510   0.005856  -0.054718   0.531970  -0.027082   0.000139
    17  H    0.576065  -0.044421  -0.020805  -0.027082   0.563859  -0.003081
    18  H    0.020766   0.389064  -0.056546   0.000139  -0.003081   0.532136
    19  H   -0.061790   0.564935  -0.012936  -0.003821   0.011494  -0.022727
    20  H   -0.037896  -0.037565   0.383492  -0.004935  -0.008789  -0.006439
    21  H   -0.033635  -0.041195   0.524562  -0.005945   0.016736  -0.002916
    22  B   -0.251286  -0.147402  -0.108042   0.053247  -0.127589   0.038119
    23  H   -0.041890   0.008941   0.025670   0.000029   0.002799  -0.016811
    24  H   -0.005277   0.016513  -0.017514   0.000691   0.000142  -0.014223
    25  H    0.019435  -0.025490   0.011821  -0.020338   0.023614   0.000547
    26  H    0.014893  -0.014987  -0.006831  -0.014189   0.007349   0.001083
              19         20         21         22         23         24
     1  C   -0.013724   0.000124  -0.015855  -0.043023  -0.018540  -0.020932
     2  H   -0.000608   0.000012  -0.002008  -0.012365   0.001313  -0.005884
     3  C    0.000495   0.001269  -0.003933   0.359804  -0.004006   0.029689
     4  N   -0.000236  -0.000011   0.000576   0.054068  -0.001411   0.003047
     5  N    0.000079   0.000082  -0.001228  -0.019183   0.001812  -0.000127
     6  N    0.000338  -0.000064   0.001770  -0.148801  -0.002377  -0.001189
     7  C   -0.000242   0.000002  -0.000012   0.010093  -0.000867   0.000228
     8  H   -0.000043   0.000002   0.000025   0.000759  -0.000210   0.000762
     9  H   -0.000031   0.000000   0.000003   0.000511  -0.000167  -0.000074
    10  H    0.000055  -0.000005   0.000006   0.001562   0.000083   0.000224
    11  C    0.022181   0.014768  -0.013197   0.381000   0.016730   0.013829
    12  C   -0.134552   0.015081  -0.035173   0.412917   0.403766   0.344237
    13  C   -0.061790  -0.037896  -0.033635  -0.251286  -0.041890  -0.005277
    14  C    0.564935  -0.037565  -0.041195  -0.147402   0.008941   0.016513
    15  C   -0.012936   0.383492   0.524562  -0.108042   0.025670  -0.017514
    16  H   -0.003821  -0.004935  -0.005945   0.053247   0.000029   0.000691
    17  H    0.011494  -0.008789   0.016736  -0.127589   0.002799   0.000142
    18  H   -0.022727  -0.006439  -0.002916   0.038119  -0.016811  -0.014223
    19  H    0.535198  -0.005197   0.010328  -0.076998   0.012600   0.005505
    20  H   -0.005197   0.520869  -0.019771   0.005162  -0.000589   0.000183
    21  H    0.010328  -0.019771   0.548135  -0.103840   0.005593   0.001566
    22  B   -0.076998   0.005162  -0.103840   4.713826  -0.115939  -0.063218
    23  H    0.012600  -0.000589   0.005593  -0.115939   0.518273  -0.005301
    24  H    0.005505   0.000183   0.001566  -0.063218  -0.005301   0.581621
    25  H    0.003449  -0.003628   0.015599  -0.201298   0.009514  -0.003356
    26  H   -0.000683  -0.000997   0.001990  -0.091796  -0.005192  -0.001751
              25         26
     1  C   -0.041841  -0.020632
     2  H   -0.003928  -0.004180
     3  C   -0.016358   0.001986
     4  N    0.004906   0.009035
     5  N   -0.011956  -0.016393
     6  N    0.013283   0.045846
     7  C    0.000140   0.000631
     8  H    0.000115   0.000131
     9  H    0.000192   0.000222
    10  H   -0.000036   0.000067
    11  C    0.467273   0.392685
    12  C    0.027544   0.011206
    13  C    0.019435   0.014893
    14  C   -0.025490  -0.014987
    15  C    0.011821  -0.006831
    16  H   -0.020338  -0.014189
    17  H    0.023614   0.007349
    18  H    0.000547   0.001083
    19  H    0.003449  -0.000683
    20  H   -0.003628  -0.000997
    21  H    0.015599   0.001990
    22  B   -0.201298  -0.091796
    23  H    0.009514  -0.005192
    24  H   -0.003356  -0.001751
    25  H    0.542535   0.007498
    26  H    0.007498   0.512133
 Mulliken charges:
               1
     1  C   -0.296801
     2  H    0.266096
     3  C   -0.637446
     4  N    0.263469
     5  N    0.035310
     6  N   -0.148679
     7  C   -0.353878
     8  H    0.191962
     9  H    0.211167
    10  H    0.200465
    11  C   -0.456858
    12  C   -0.428053
    13  C   -0.409609
    14  C   -0.376333
    15  C   -0.257502
    16  H    0.180686
    17  H    0.157389
    18  H    0.176884
    19  H    0.166930
    20  H    0.184840
    21  H    0.151817
    22  B    0.479711
    23  H    0.206178
    24  H    0.140612
    25  H    0.180765
    26  H    0.170876
 Sum of Mulliken charges =  -0.00000
 Mulliken charges with hydrogens summed into heavy atoms:
               1
     1  C   -0.030704
     3  C   -0.637446
     4  N    0.263469
     5  N    0.035310
     6  N   -0.148679
     7  C    0.249716
    11  C   -0.105217
    12  C   -0.081263
    13  C   -0.071535
    14  C   -0.032518
    15  C    0.079155
    22  B    0.479711
 Electronic spatial extent (au):  <R**2>=           6809.3219
 Charge=              0.0000 electrons
 Dipole moment (field-independent basis, Debye):
    X=             -3.4003    Y=              4.2111    Z=             -0.1592  Tot=              5.4148
 Quadrupole moment (field-independent basis, Debye-Ang):
   XX=            -88.3875   YY=            -76.0187   ZZ=            -70.7984
   XY=             11.7170   XZ=              5.8876   YZ=             -5.6420
 Traceless Quadrupole moment (field-independent basis, Debye-Ang):
   XX=             -9.9859   YY=              2.3828   ZZ=              7.6031
   XY=             11.7170   XZ=              5.8876   YZ=             -5.6420
 Octapole moment (field-independent basis, Debye-Ang**2):
  XXX=           -796.6241  YYY=             59.4460  ZZZ=           -286.8388  XYY=           -261.2271
  XXY=             55.7257  XXZ=            -63.3095  XZZ=           -255.1291  YZZ=             25.5800
  YYZ=            -86.9990  XYZ=            -12.8811
 Hexadecapole moment (field-independent basis, Debye-Ang**3):
 XXXX=          -5971.8290 YYYY=           -472.6411 ZZZZ=          -3314.6922 XXXY=            456.9053
 XXXZ=          -1339.9659 YYYX=            341.3886 YYYZ=             97.0030 ZZZX=          -1461.6176
 ZZZY=             73.8671 XXYY=          -1101.5339 XXZZ=          -1570.2831 YYZZ=           -638.4658
 XXYZ=              4.1232 YYXZ=           -470.1194 ZZXY=            127.1352
 N-N= 6.644675537085D+02 E-N=-2.496387779081D+03  KE= 5.001843764240D+02
 Breneman (CHELPG) radii used.
 Generate Potential Derived Charges using the Breneman model, NDens= 1.
 Grid spacing= 0.300 Box extension= 2.800
 NStep X,Y,Z=   40     33     50   Total possible points=       66000
 Number of Points to Fit=   15834

 **********************************************************************

            Electrostatic Properties Using The SCF Density.

 **********************************************************************

       Atomic Center    1 is at   2.180801  0.587984 -0.179265
       Atomic Center    2 is at   1.648170  1.438319  0.214757
       Atomic Center    3 is at   3.129540 -0.251109  0.377623
       Atomic Center    4 is at   1.993299  0.143851 -1.429895
       Atomic Center    5 is at   2.777127 -0.926846 -1.667995
       Atomic Center    6 is at   3.453282 -1.164911 -0.599177
       Atomic Center    7 is at   1.097433  0.640402 -2.456906
       Atomic Center    8 is at   1.287435  1.698425 -2.637220
       Atomic Center    9 is at   1.295559  0.073833 -3.364267
       Atomic Center   10 is at   0.059827  0.495414 -2.154562
       Atomic Center   11 is at   4.871470 -1.274488  2.188688
       Atomic Center   12 is at   3.385115  0.890936  2.829294
       Atomic Center   13 is at   4.987900 -1.538208  3.698067
       Atomic Center   14 is at   3.584752  0.486841  4.299352
       Atomic Center   15 is at   4.907763 -0.249841  4.519729
       Atomic Center   16 is at   5.918875 -2.068389  3.923314
       Atomic Center   17 is at   4.173407 -2.203287  4.012254
       Atomic Center   18 is at   3.532528  1.367021  4.948433
       Atomic Center   19 is at   2.762883 -0.171748  4.607803
       Atomic Center   20 is at   5.030200 -0.479075  5.583241
       Atomic Center   21 is at   5.741320  0.410326  4.243494
       Atomic Center   22 is at   3.759748 -0.237829  1.794317
       Atomic Center   23 is at   4.085538  1.711540  2.593748
       Atomic Center   24 is at   2.387174  1.314817  2.671010
       Atomic Center   25 is at   5.806271 -0.802039  1.837645
       Atomic Center   26 is at   4.798017 -2.203490  1.616237
   15834 points will be used for fitting atomic charges
 Fitting point charges to electrostatic potential
 Charges from ESP fit, RMS=   0.00345 RRMS=   0.17174:
 ESP charges:
               1
     1  C   -0.406021
     2  H    0.196047
     3  C    0.196410
     4  N    0.576977
     5  N   -0.384725
     6  N   -0.280007
     7  C   -0.291344
     8  H    0.117279
     9  H    0.109176
    10  H    0.120218
    11  C    0.032680
    12  C   -0.132477
    13  C    0.141472
    14  C    0.124669
    15  C   -0.086806
    16  H   -0.042879
    17  H   -0.033595
    18  H   -0.029569
    19  H   -0.034336
    20  H   -0.000289
    21  H    0.009545
    22  B    0.178515
    23  H    0.018681
    24  H    0.000024
    25  H   -0.016067
    26  H   -0.083578
 Sum of ESP charges =   0.00000
 ESP charges with hydrogens summed into heavy atoms:
               1
     1  C   -0.209975
     3  C    0.196410
     4  N    0.576977
     5  N   -0.384725
     6  N   -0.280007
     7  C    0.055330
    11  C   -0.066964
    12  C   -0.113773
    13  C    0.064998
    14  C    0.060764
    15  C   -0.077550
    22  B    0.178515
 Charge=   0.00000 Dipole=    -3.3742     4.1492    -0.2266 Tot=     5.3528
 -----------------------------------------------------------------

              Electrostatic Properties (Atomic Units)

 -----------------------------------------------------------------
    Center     Electric         -------- Electric Field --------
               Potential          X             Y             Z
 -----------------------------------------------------------------
    1 Atom    -14.722548
    2 Atom     -1.044557
    3 Atom    -14.777665
    4 Atom    -18.293505
    5 Atom    -18.360196
    6 Atom    -18.397994
    7 Atom    -14.707537
    8 Atom     -1.068144
    9 Atom     -1.073784
   10 Atom     -1.070389
   11 Atom    -14.813737
   12 Atom    -14.798670
   13 Atom    -14.788399
   14 Atom    -14.781723
   15 Atom    -14.787306
   16 Atom     -1.146005
   17 Atom     -1.143123
   18 Atom     -1.138650
   19 Atom     -1.136801
   20 Atom     -1.138464
   21 Atom     -1.137659
   22 Atom    -11.477798
   23 Atom     -1.110396
   24 Atom     -1.123473
   25 Atom     -1.123069
   26 Atom     -1.147695
 -----------------------------------------------------------------
 Unable to Open any file for archive entry.
 1\1\GINC-IRENE4065\SP\RwB97XD\GenECP\C8H14B1N3\PENASFRA\09-Apr-2024\0\
 \# wb97xd/genecp scrf=(solvent=toluene,pcm) nosymm pop=(chelpg) scfcyc
 =300\\cyclo_metriazole_chelpg\\0,1\C,0,2.180801,0.587984,-0.179265\H,0
 ,1.64817,1.438319,0.214757\C,0,3.12954,-0.251109,0.377623\N,0,1.993299
 ,0.143851,-1.429895\N,0,2.777127,-0.926846,-1.667995\N,0,3.453282,-1.1
 64911,-0.599177\C,0,1.097433,0.640402,-2.456906\H,0,1.287435,1.698425,
 -2.63722\H,0,1.295559,0.073833,-3.364267\H,0,0.059827,0.495414,-2.1545
 62\C,0,4.87147,-1.274488,2.188688\C,0,3.385115,0.890936,2.829294\C,0,4
 .9879,-1.538208,3.698067\C,0,3.584752,0.486841,4.299352\C,0,4.907763,-
 0.249841,4.519729\H,0,5.918875,-2.068389,3.923314\H,0,4.173407,-2.2032
 87,4.012254\H,0,3.532528,1.367021,4.948433\H,0,2.762883,-0.171748,4.60
 7803\H,0,5.0302,-0.479075,5.583241\H,0,5.74132,0.410326,4.243494\B,0,3
 .759748,-0.237829,1.794317\H,0,4.085538,1.71154,2.593748\H,0,2.387174,
 1.314817,2.67101\H,0,5.806271,-0.802039,1.837645\H,0,4.798017,-2.20349
 ,1.616237\\Version=AS64L-G16RevC.02\HF=-502.3508477\RMSD=4.824e-09\Dip
 ole=-1.3377771,1.6567633,-0.0626212\Quadrupole=-7.4243012,1.771581,5.6
 527202,8.7112979,4.3773061,-4.1946846\PG=C01 [X(C8H14B1N3)]\\@
 The archive entry for this job was punched.


 THE FIRST MORNING OF CREATION WROTE WHAT THE LAST DAWN OF
 RECKONING SHALL READ. -- OMAR KHAYYAM
 Job cpu time:       0 days  0 hours 40 minutes 16.9 seconds.
 Elapsed time:       0 days  0 hours  0 minutes 25.0 seconds.
 File lengths (MBytes):  RWF=    135 Int=      0 D2E=      0 Chk=      9 Scr=      1
 Normal termination of Gaussian 16 at Tue Apr  9 18:52:15 2024.
