 Entering Gaussian System, Link 0=/ccc/products/gaussian-16-C.02/system/default/g16/g16
 Input=cyclo_dimethylaniline_chelpg.gjf
 Output=cyclo_dimethylaniline_chelpg.log
 Initial command:
 /ccc/products/gaussian-16-C.02/system/default/g16/l1.exe "/ccc/scratch/cont003/gen7343/penasfra/flp/b-n_flp/cyclo_dimethylaniline/Reactant/Gau-467321.inp" -scrdir="/ccc/scratch/cont003/gen7343/penasfra/flp/b-n_flp/cyclo_dimethylaniline/Reactant/"
 Entering Link 1 = /ccc/products/gaussian-16-C.02/system/default/g16/l1.exe PID=    467370.
  
 Copyright (c) 1988-2021, Gaussian, Inc.  All Rights Reserved.
  
 This is part of the Gaussian(R) 16 program.  It is based on
 the Gaussian(R) 09 system (copyright 2009, Gaussian, Inc.),
 the Gaussian(R) 03 system (copyright 2003, Gaussian, Inc.),
 the Gaussian(R) 98 system (copyright 1998, Gaussian, Inc.),
 the Gaussian(R) 94 system (copyright 1995, Gaussian, Inc.),
 the Gaussian 92(TM) system (copyright 1992, Gaussian, Inc.),
 the Gaussian 90(TM) system (copyright 1990, Gaussian, Inc.),
 the Gaussian 88(TM) system (copyright 1988, Gaussian, Inc.),
 the Gaussian 86(TM) system (copyright 1986, Carnegie Mellon
 University), and the Gaussian 82(TM) system (copyright 1983,
 Carnegie Mellon University). Gaussian is a federally registered
 trademark of Gaussian, Inc.
  
 This software contains proprietary and confidential information,
 including trade secrets, belonging to Gaussian, Inc.
  
 This software is provided under written license and may be
 used, copied, transmitted, or stored only in accord with that
 written license.
  
 The following legend is applicable only to US Government
 contracts under FAR:
  
                    RESTRICTED RIGHTS LEGEND
  
 Use, reproduction and disclosure by the US Government is
 subject to restrictions as set forth in subparagraphs (a)
 and (c) of the Commercial Computer Software - Restricted
 Rights clause in FAR 52.227-19.
  
 Gaussian, Inc.
 340 Quinnipiac St., Bldg. 40, Wallingford CT 06492
  
  
 ---------------------------------------------------------------
 Warning -- This program may not be used in any manner that
 competes with the business of Gaussian, Inc. or will provide
 assistance to any competitor of Gaussian, Inc.  The licensee
 of this program is prohibited from giving any competitor of
 Gaussian, Inc. access to this program.  By using this program,
 the user acknowledges that Gaussian, Inc. is engaged in the
 business of creating and licensing software in the field of
 computational chemistry and represents and warrants to the
 licensee that it is not a competitor of Gaussian, Inc. and that
 it will not use this program in any manner prohibited above.
 ---------------------------------------------------------------
  

 Cite this work as:
 Gaussian 16, Revision C.02,
 M. J. Frisch, G. W. Trucks, H. B. Schlegel, G. E. Scuseria, 
 M. A. Robb, J. R. Cheeseman, G. Scalmani, V. Barone, 
 G. A. Petersson, H. Nakatsuji, X. Li, M. Caricato, A. V. Marenich, 
 J. Bloino, B. G. Janesko, R. Gomperts, B. Mennucci, H. P. Hratchian, 
 J. V. Ortiz, A. F. Izmaylov, J. L. Sonnenberg, D. Williams-Young, 
 F. Ding, F. Lipparini, F. Egidi, J. Goings, B. Peng, A. Petrone, 
 T. Henderson, D. Ranasinghe, V. G. Zakrzewski, J. Gao, N. Rega, 
 G. Zheng, W. Liang, M. Hada, M. Ehara, K. Toyota, R. Fukuda, 
 J. Hasegawa, M. Ishida, T. Nakajima, Y. Honda, O. Kitao, H. Nakai, 
 T. Vreven, K. Throssell, J. A. Montgomery, Jr., J. E. Peralta, 
 F. Ogliaro, M. J. Bearpark, J. J. Heyd, E. N. Brothers, K. N. Kudin, 
 V. N. Staroverov, T. A. Keith, R. Kobayashi, J. Normand, 
 K. Raghavachari, A. P. Rendell, J. C. Burant, S. S. Iyengar, 
 J. Tomasi, M. Cossi, J. M. Millam, M. Klene, C. Adamo, R. Cammi, 
 J. W. Ochterski, R. L. Martin, K. Morokuma, O. Farkas, 
 J. B. Foresman, and D. J. Fox, Gaussian, Inc., Wallingford CT, 2019.
 
 ******************************************
 Gaussian 16:  AS64L-G16RevC.02  7-Dec-2021
                 9-Apr-2024 
 ******************************************
 %nprocshared=128
 Will use up to  128 processors via shared memory.
 %mem=30GB
 %chk=cyclo_dimethylaniline_chelpg.chk
 ----------------------------------------------------------------------
 # wb97xd/genecp scrf=(solvent=toluene,pcm) nosymm pop=(chelpg) scfcyc=
 300
 ----------------------------------------------------------------------
 1/38=1,172=1/1;
 2/12=2,15=1,17=6,18=5,40=1/2;
 3/5=7,11=2,16=1,17=8,25=1,30=1,70=2201,72=13,74=-58/1,2,3;
 4//1;
 5/5=2,7=300,38=5,53=13/2;
 6/7=2,8=2,9=2,10=2,15=8,20=3,28=1/1,2;
 99/5=1,9=1/99;
 ----------------------------
 cyclo_dimethylaniline_chelpg
 ----------------------------
 Symbolic Z-matrix:
 Charge =  0 Multiplicity = 1
 C                    -0.85753   0.98339   0.73453 
 C                     0.53122   0.96806   0.80363 
 C                     1.31904   2.03305   0.35209 
 C                     0.66004   3.20159  -0.1071 
 C                    -0.74055   3.21692  -0.17157 
 C                    -1.48435   2.11364   0.22986 
 H                    -1.43677   0.12987   1.06719 
 H                     1.02574   0.08005   1.18741 
 H                    -1.26465   4.09862  -0.51695 
 H                    -2.5668    2.15558   0.16761 
 N                     1.40919   4.31687  -0.4944 
 C                     2.50254   4.7719    0.34788 
 H                     2.82219   3.98882   1.03585 
 H                     3.3646    5.06477  -0.25903 
 H                     2.1963    5.63507   0.95782 
 C                     0.74381   5.40721  -1.17311 
 H                     0.1346    5.03188  -1.9971 
 H                     0.10541   6.00676  -0.50378 
 H                     1.503     6.07015  -1.59416 
 B                     2.86021   1.7755    0.24321 
 C                     3.63729   0.99523   1.37825 
 C                     3.6741    2.10182  -1.06839 
 C                     5.12201   1.38339   1.48532 
 C                     5.1629    2.40492  -0.83553 
 C                     5.81407   1.40502   0.12135 
 H                     5.64744   0.70106   2.16144 
 H                     5.20348   2.3818    1.93513 
 H                     5.70463   2.4193   -1.78709 
 H                     5.2644    3.41221  -0.41058 
 H                     6.87426   1.64794   0.24762 
 H                     5.77274   0.4005   -0.32102 
 H                     3.14163   1.05861   2.35247 
 H                     3.5798   -0.06786   1.08739 
 H                     3.19984   2.86185  -1.69352 
 H                     3.59886   1.15909  -1.63985 
 
                          Input orientation:                          
 ---------------------------------------------------------------------
 Center     Atomic      Atomic             Coordinates (Angstroms)
 Number     Number       Type             X           Y           Z
 ---------------------------------------------------------------------
      1          6           0       -0.857532    0.983394    0.734525
      2          6           0        0.531216    0.968058    0.803632
      3          6           0        1.319040    2.033047    0.352091
      4          6           0        0.660042    3.201590   -0.107095
      5          6           0       -0.740548    3.216915   -0.171567
      6          6           0       -1.484354    2.113641    0.229860
      7          1           0       -1.436767    0.129873    1.067188
      8          1           0        1.025737    0.080048    1.187405
      9          1           0       -1.264648    4.098622   -0.516951
     10          1           0       -2.566798    2.155577    0.167609
     11          7           0        1.409191    4.316872   -0.494397
     12          6           0        2.502538    4.771895    0.347881
     13          1           0        2.822190    3.988822    1.035852
     14          1           0        3.364602    5.064766   -0.259030
     15          1           0        2.196304    5.635071    0.957822
     16          6           0        0.743813    5.407212   -1.173105
     17          1           0        0.134597    5.031884   -1.997101
     18          1           0        0.105405    6.006759   -0.503777
     19          1           0        1.502996    6.070153   -1.594161
     20          5           0        2.860214    1.775499    0.243213
     21          6           0        3.637286    0.995227    1.378251
     22          6           0        3.674095    2.101823   -1.068392
     23          6           0        5.122012    1.383387    1.485316
     24          6           0        5.162904    2.404920   -0.835532
     25          6           0        5.814073    1.405023    0.121351
     26          1           0        5.647437    0.701057    2.161441
     27          1           0        5.203483    2.381795    1.935128
     28          1           0        5.704630    2.419302   -1.787088
     29          1           0        5.264398    3.412213   -0.410580
     30          1           0        6.874257    1.647938    0.247619
     31          1           0        5.772742    0.400502   -0.321018
     32          1           0        3.141633    1.058608    2.352472
     33          1           0        3.579798   -0.067862    1.087392
     34          1           0        3.199838    2.861852   -1.693515
     35          1           0        3.598856    1.159090   -1.639845
 ---------------------------------------------------------------------
                    Distance matrix (angstroms):
                    1          2          3          4          5
     1  C    0.000000
     2  C    1.390551   0.000000
     3  C    2.446527   1.399556   0.000000
     4  C    2.816336   2.415509   1.417964   0.000000
     5  C    2.413152   2.761477   2.432625   1.402157   0.000000
     6  C    1.387462   2.388325   2.807215   2.428087   1.389822
     7  H    1.083825   2.155220   3.424603   3.900127   3.398391
     8  H    2.137250   1.086460   2.144290   3.399042   3.847922
     9  H    3.381801   3.843110   3.420128   2.162656   1.082302
    10  H    2.148720   3.378227   3.892144   3.403249   2.139315
    11  N    4.214304   3.697333   2.437319   1.398242   2.436289
    12  C    5.078612   4.308479   2.983618   2.463261   3.633923
    13  H    4.760646   3.798355   2.559696   2.569231   3.840157
    14  H    5.955767   5.093166   3.707980   3.287728   4.502717
    15  H    5.569010   4.957550   3.756472   3.068547   3.968387
    16  C    5.076763   4.864029   3.747279   2.451156   2.829100
    17  H    4.983610   4.951373   3.989315   2.682945   2.718927
    18  H    5.262588   5.222944   4.242147   2.886858   2.934149
    19  H    6.072066   5.720589   4.485528   3.339250   3.898491
    20  B    3.832813   2.527897   1.566334   2.645224   3.900668
    21  C    4.540695   3.158892   2.739405   3.992277   5.148132
    22  C    5.003702   3.829828   2.751143   3.349342   4.640776
    23  C    6.039754   4.659678   4.021051   5.074526   6.362130
    24  C    6.382121   5.118981   4.040301   4.630450   5.995910
    25  C    6.712977   5.344626   4.544555   5.462955   6.806747
    26  H    6.665615   5.300062   4.876778   6.022710   7.251125
    27  H    6.335051   5.010890   4.209101   5.048326   6.361375
    28  H    7.175119   5.965078   4.894760   5.374218   6.692265
    29  H    6.684942   5.463627   4.248484   4.619151   6.012873
    30  H    7.775555   6.403558   5.569530   6.415304   7.786056
    31  H    6.739026   5.390784   4.791006   5.833657   7.097708
    32  H    4.314711   3.036673   2.876265   4.098797   5.108854
    33  H    4.573790   3.232260   3.172619   4.543247   5.571367
    34  H    5.087852   4.116278   2.899797   3.013754   4.238990
    35  H    5.052514   3.926511   3.151059   3.893296   5.022043
                    6          7          8          9         10
     6  C    0.000000
     7  H    2.153768   0.000000
     8  H    3.369414   2.465940   0.000000
     9  H    2.132170   4.276691   4.929465   0.000000
    10  H    1.085043   2.487909   4.272483   2.437138   0.000000
    11  N    3.708285   5.298017   4.574513   2.682826   4.573613
    12  C    4.793282   6.130571   4.989907   3.923381   5.707520
    13  H    4.765737   5.747276   4.304501   4.373271   5.758109
    14  H    5.697414   7.011788   5.692967   4.736023   6.620189
    15  H    5.145643   6.596846   5.681656   4.063720   5.951341
    16  C    4.216711   6.133853   5.833538   2.485329   4.830196
    17  H    4.012044   5.990723   5.954485   2.240471   4.500738
    18  H    4.268715   6.275668   6.231614   2.349086   4.735296
    19  H    5.282547   7.142262   6.621650   3.564712   5.915316
    20  B    4.357728   4.674512   2.670460   4.794709   5.440830
    21  C    5.366642   5.156705   2.773835   6.103426   6.426720
    22  C    5.319323   5.879643   4.023679   5.355602   6.362337
    23  C    6.764134   6.690569   4.308934   7.222950   7.839032
    24  C    6.738393   7.235457   5.158823   6.654588   7.798510
    25  C    7.333550   7.422621   5.081357   7.600737   8.414539
    26  H    7.522556   7.190938   4.763875   8.154395   8.576984
    27  H    6.907026   7.065224   4.828115   7.127195   7.971986
    28  H    7.472817   8.024209   6.017621   7.280398   8.503347
    29  H    6.902326   7.606784   5.623444   6.565890   7.952425
    30  H    8.371593   8.488188   6.127533   8.534178   9.455031
    31  H    7.476881   7.346930   4.991201   7.952317   8.536215
    32  H    5.197916   4.845230   2.606142   6.073762   6.209924
    33  H    5.580318   5.020501   2.560294   6.588032   6.600782
    34  H    5.118676   6.048413   4.556846   4.779701   6.100549
    35  H    5.499635   5.809029   3.972231   5.792703   6.501936
                   11         12         13         14         15
    11  N    0.000000
    12  C    1.453233   0.000000
    13  H    2.108517   1.090268   0.000000
    14  H    2.106745   1.094198   1.768781   0.000000
    15  H    2.113323   1.100400   1.762940   1.780701   0.000000
    16  C    1.446449   2.410423   3.348279   2.796665   2.588919
    17  H    2.096175   3.342705   4.184488   3.668093   3.653223
    18  H    2.134400   2.827801   3.717990   3.401414   2.578038
    19  H    2.071781   2.540883   3.604050   2.501790   2.680035
    20  B    3.017965   3.019483   2.351281   3.365402   3.980922
    21  C    4.416395   4.075848   3.121415   4.395019   4.876612
    22  C    3.219581   3.241552   2.952008   3.087051   4.332811
    23  C    5.129292   4.431409   3.504210   4.436641   5.187951
    24  C    4.226381   3.752410   3.389656   3.262058   4.738218
    25  C    5.316107   4.727939   4.057548   4.420217   5.628609
    26  H    6.171736   5.454458   4.478657   5.487438   6.140319
    27  H    4.903444   3.940436   3.010281   3.923537   4.536745
    28  H    4.870587   4.510674   4.329070   3.848269   5.494002
    29  H    3.960815   3.170468   2.896381   2.522523   4.028253
    30  H    6.127050   5.374113   4.745555   4.924336   6.187476
    31  H    5.865884   5.500067   4.839720   5.249604   6.467384
    32  H    4.660719   4.267942   3.228264   4.787375   4.876752
    33  H    5.141934   5.013044   4.127143   5.310653   5.869778
    34  H    2.600266   2.881283   2.976932   2.633956   3.965780
    35  H    4.009772   4.266770   3.971139   4.149196   5.361850
                   16         17         18         19         20
    16  C    0.000000
    17  H    1.091322   0.000000
    18  H    1.102280   1.783606   0.000000
    19  H    1.092308   1.764335   1.773758   0.000000
    20  B    4.435589   4.801254   5.103972   4.864364   0.000000
    21  C    5.860650   6.321110   6.413397   6.256621   1.581448
    22  C    4.418497   4.687836   5.320044   4.553872   1.577719
    23  C    6.513601   7.093170   7.106223   6.674296   2.610039
    24  C    5.353137   5.790859   6.217845   5.234919   2.619588
    25  C    6.587918   7.063880   7.359052   6.579651   2.979494
    26  H    7.570510   8.151131   8.122067   7.752943   3.550019
    27  H    6.221167   6.941110   6.714091   6.305035   2.953148
    28  H    5.823597   6.155888   6.772596   5.569530   3.553492
    29  H    4.999715   5.608497   5.775428   4.755382   2.981003
    30  H    7.330276   7.868474   8.085869   7.197123   4.016072
    31  H    7.147260   7.486497   7.973846   7.210864   3.269831
    32  H    6.090122   6.614225   6.470011   6.586093   2.245463
    33  H    6.567274   6.884106   7.176646   7.012778   2.151376
    34  H    3.575156   3.767878   4.569621   3.630749   2.246424
    35  H    5.139616   5.208383   6.082331   5.339781   2.114583
                   21         22         23         24         25
    21  C    0.000000
    22  C    2.685511   0.000000
    23  C    1.538357   3.022257   0.000000
    24  C    3.035717   1.537089   2.536048   0.000000
    25  C    2.546789   2.545687   1.529646   1.529523   0.000000
    26  H    2.177299   4.035845   1.094893   3.481346   2.164556
    27  H    2.164638   3.382092   1.098083   2.771054   2.148649
    28  H    4.039959   2.177243   3.481550   1.095049   2.163996
    29  H    3.418952   2.163077   2.780437   1.097964   2.148000
    30  H    3.490321   3.489833   2.161537   2.162167   1.094962
    31  H    2.793096   2.803102   2.156932   2.157387   1.098390
    32  H    1.094895   3.615816   2.186171   4.007675   3.498548
    33  H    1.103658   3.060038   2.154737   3.509774   2.845103
    34  H    3.620966   1.092402   3.998197   2.190559   3.500045
    35  H    3.022785   1.104973   3.483812   2.155286   2.840683
                   26         27         28         29         30
    26  H    0.000000
    27  H    1.753052   0.000000
    28  H    4.306567   3.755988   0.000000
    29  H    3.756644   2.562775   1.753411   0.000000
    30  H    2.462597   2.485502   2.470438   2.477406   0.000000
    31  H    2.503725   3.056104   2.495907   3.055624   1.758630
    32  H    2.538383   2.485201   5.055334   4.204764   4.325529
    33  H    2.453558   3.058730   4.354714   4.146410   3.808234
    34  H    5.051778   4.172781   2.545307   2.492233   4.329312
    35  H    4.342379   4.104908   2.458475   3.059687   3.811790
                   31         32         33         34         35
    31  H    0.000000
    32  H    3.808331   0.000000
    33  H    2.648016   1.749672   0.000000
    34  H    3.815996   4.430021   4.057220   0.000000
    35  H    2.653402   4.019670   2.990585   1.749713   0.000000
 Symmetry turned off by external request.
 Stoichiometry    C13H20BN
 Framework group  C1[X(C13H20BN)]
 Deg. of freedom    99
 Full point group                 C1      NOp   1
 Rotational constants (GHZ):           0.9381120           0.4333786           0.3284357
 General basis read from cards:  (5D, 7F)
 ======================================================================================================
                                       Pseudopotential Parameters
 ======================================================================================================
  Center     Atomic      Valence      Angular      Power
  Number     Number     Electrons     Momentum     of R      Exponent        Coefficient   SO-Coeffient
 ======================================================================================================
    1          6
                                   No pseudopotential on this center.
    2          6
                                   No pseudopotential on this center.
    3          6
                                   No pseudopotential on this center.
    4          6
                                   No pseudopotential on this center.
    5          6
                                   No pseudopotential on this center.
    6          6
                                   No pseudopotential on this center.
    7          1
                                   No pseudopotential on this center.
    8          1
                                   No pseudopotential on this center.
    9          1
                                   No pseudopotential on this center.
   10          1
                                   No pseudopotential on this center.
   11          7
                                   No pseudopotential on this center.
   12          6
                                   No pseudopotential on this center.
   13          1
                                   No pseudopotential on this center.
   14          1
                                   No pseudopotential on this center.
   15          1
                                   No pseudopotential on this center.
   16          6
                                   No pseudopotential on this center.
   17          1
                                   No pseudopotential on this center.
   18          1
                                   No pseudopotential on this center.
   19          1
                                   No pseudopotential on this center.
   20          5
                                   No pseudopotential on this center.
   21          6
                                   No pseudopotential on this center.
   22          6
                                   No pseudopotential on this center.
   23          6
                                   No pseudopotential on this center.
   24          6
                                   No pseudopotential on this center.
   25          6
                                   No pseudopotential on this center.
   26          1
                                   No pseudopotential on this center.
   27          1
                                   No pseudopotential on this center.
   28          1
                                   No pseudopotential on this center.
   29          1
                                   No pseudopotential on this center.
   30          1
                                   No pseudopotential on this center.
   31          1
                                   No pseudopotential on this center.
   32          1
                                   No pseudopotential on this center.
   33          1
                                   No pseudopotential on this center.
   34          1
                                   No pseudopotential on this center.
   35          1
                                   No pseudopotential on this center.
 ======================================================================================================
   470 basis functions,   720 primitive gaussians,   485 cartesian basis functions
    55 alpha electrons       55 beta electrons
       nuclear repulsion energy       981.9713392278 Hartrees.
 NAtoms=   35 NActive=   35 NUniq=   35 SFac= 1.00D+00 NAtFMM=   60 NAOKFM=F Big=F
 Integral buffers will be    131072 words long.
 Raffenetti 2 integral format.
 Two-electron integral symmetry is turned off.
 Nuclear repulsion after empirical dispersion term =      981.9418559271 Hartrees.
 ------------------------------------------------------------------------------
 Polarizable Continuum Model (PCM)
 =================================
 Model                : PCM.
 Atomic radii         : UFF (Universal Force Field).
 Polarization charges : Total charges.
 Charge compensation  : None.
 Solution method      : On-the-fly selection.
 Cavity type          : Scaled VdW (van der Waals Surface) (Alpha=1.100).
 Cavity algorithm     : GePol (No added spheres)
                        Default sphere list used, NSphG=   35.
                        Lebedev-Laikov grids with approx.  5.0 points / Ang**2.
                        Smoothing algorithm: York/Karplus (Gamma=1.0000).
                        Polarization charges: spherical gaussians, with
                                              point-specific exponents (IZeta= 3).
                        Self-potential: point-specific (ISelfS= 7).
                        Self-field    : sphere-specific E.n sum rule (ISelfD= 2).
 Solvent              : Toluene, Eps=   2.374100 Eps(inf)=   2.238315
 ------------------------------------------------------------------------------
 One-electron integrals computed using PRISM.
   1 Symmetry operations used in ECPInt.
 ECPInt:  NShTT=   18145 NPrTT=   56610 LenC2=   17159 LenP2D=   39497.
 LDataN:  DoStor=T MaxTD1= 4 Len=   56
 Number of processors reduced to  92 by ecpmxn.
 NBasis=   470 RedAO= T EigKep=  1.85D-06  NBF=   470
 NBsUse=   468 1.00D-06 EigRej=  8.81D-07 NBFU=   468
 ExpMin= 3.15D-02 ExpMax= 6.29D+03 ExpMxC= 9.49D+02 IAcc=3 IRadAn=         5 AccDes= 0.00D+00
 Harris functional with IExCor= 4639 and IRadAn=       5 diagonalized for initial guess.
 HarFok:  IExCor= 4639 AccDes= 0.00D+00 IRadAn=         5 IDoV= 1 UseB2=F ITyADJ=14
 ICtDFT=  3500011 ScaDFX=  1.000000  1.000000  1.000000  1.000000
 FoFCou: FMM=F IPFlag=           0 FMFlag=      100000 FMFlg1=           0
         NFxFlg=           0 DoJE=T BraDBF=F KetDBF=T FulRan=T
         wScrn=  0.000000 ICntrl=       500 IOpCl=  0 I1Cent=   200000004 NGrid=           0
         NMat0=    1 NMatS0=      1 NMatT0=    0 NMatD0=    1 NMtDS0=    0 NMtDT0=    0
 Symmetry not used in FoFCou.
 Requested convergence on RMS density matrix=1.00D-08 within 300 cycles.
 Requested convergence on MAX density matrix=1.00D-06.
 Requested convergence on             energy=1.00D-06.
 No special actions if energy rises.
 Inv3:  Mode=1 IEnd=    15870000.
 Iteration    1 A*A^-1 deviation from unit magnitude is 5.33D-15 for   2284.
 Iteration    1 A*A^-1 deviation from orthogonality  is 2.35D-15 for   2284   1781.
 Iteration    1 A^-1*A deviation from unit magnitude is 5.33D-15 for   2284.
 Iteration    1 A^-1*A deviation from orthogonality  is 1.35D-15 for   1903   1666.
 Error on total polarization charges =  0.01060
 SCF Done:  E(RwB97XD) =  -587.006549799     A.U. after   16 cycles
            NFock= 16  Conv=0.46D-08     -V/T= 2.0047

 **********************************************************************

            Population analysis using the SCF Density.

 **********************************************************************

 Alpha  occ. eigenvalues --  -14.44449 -10.32668 -10.31175 -10.30761 -10.28660
 Alpha  occ. eigenvalues --  -10.28546 -10.27843 -10.27501 -10.27285 -10.27147
 Alpha  occ. eigenvalues --  -10.26943 -10.26284 -10.25102 -10.24701  -6.83499
 Alpha  occ. eigenvalues --   -1.04982  -0.94620  -0.90597  -0.84789  -0.84535
 Alpha  occ. eigenvalues --   -0.83004  -0.81492  -0.78101  -0.75194  -0.69801
 Alpha  occ. eigenvalues --   -0.69021  -0.66984  -0.65268  -0.61833  -0.56809
 Alpha  occ. eigenvalues --   -0.56620  -0.56023  -0.55858  -0.54056  -0.52612
 Alpha  occ. eigenvalues --   -0.51238  -0.50928  -0.49978  -0.48633  -0.48308
 Alpha  occ. eigenvalues --   -0.47188  -0.46397  -0.45782  -0.45260  -0.44913
 Alpha  occ. eigenvalues --   -0.43629  -0.42973  -0.41285  -0.41018  -0.39985
 Alpha  occ. eigenvalues --   -0.36935  -0.35885  -0.35419  -0.32288  -0.27041
 Alpha virt. eigenvalues --    0.02569   0.03826   0.04780   0.04837   0.05500
 Alpha virt. eigenvalues --    0.06029   0.06190   0.06526   0.06989   0.07235
 Alpha virt. eigenvalues --    0.07946   0.08146   0.08338   0.09178   0.09299
 Alpha virt. eigenvalues --    0.09485   0.10086   0.10305   0.11018   0.11152
 Alpha virt. eigenvalues --    0.11967   0.12472   0.13117   0.13446   0.13956
 Alpha virt. eigenvalues --    0.14402   0.15155   0.15216   0.15846   0.16058
 Alpha virt. eigenvalues --    0.16949   0.17128   0.17342   0.17906   0.18112
 Alpha virt. eigenvalues --    0.18356   0.18618   0.18747   0.18996   0.19071
 Alpha virt. eigenvalues --    0.19556   0.19725   0.20009   0.20043   0.20347
 Alpha virt. eigenvalues --    0.20606   0.20738   0.21077   0.21450   0.21617
 Alpha virt. eigenvalues --    0.21977   0.22116   0.22493   0.22710   0.23378
 Alpha virt. eigenvalues --    0.23722   0.24048   0.24353   0.24615   0.25235
 Alpha virt. eigenvalues --    0.25394   0.25469   0.26003   0.26047   0.26356
 Alpha virt. eigenvalues --    0.26683   0.27159   0.27432   0.27885   0.29051
 Alpha virt. eigenvalues --    0.29243   0.29488   0.29786   0.30034   0.30563
 Alpha virt. eigenvalues --    0.31193   0.31607   0.31851   0.31976   0.32599
 Alpha virt. eigenvalues --    0.32697   0.33036   0.33317   0.33991   0.34571
 Alpha virt. eigenvalues --    0.35321   0.35453   0.35857   0.36040   0.36874
 Alpha virt. eigenvalues --    0.37044   0.37603   0.38172   0.38610   0.38881
 Alpha virt. eigenvalues --    0.39259   0.39764   0.40071   0.40854   0.41107
 Alpha virt. eigenvalues --    0.41580   0.42071   0.42247   0.42497   0.43215
 Alpha virt. eigenvalues --    0.43818   0.44520   0.45109   0.46490   0.47124
 Alpha virt. eigenvalues --    0.47907   0.48147   0.49244   0.50142   0.51008
 Alpha virt. eigenvalues --    0.51300   0.53334   0.55764   0.56648   0.57931
 Alpha virt. eigenvalues --    0.58261   0.58434   0.59090   0.60270   0.61641
 Alpha virt. eigenvalues --    0.62293   0.63810   0.64299   0.65147   0.65407
 Alpha virt. eigenvalues --    0.65932   0.67281   0.67947   0.68618   0.69381
 Alpha virt. eigenvalues --    0.69777   0.70472   0.71176   0.71875   0.72642
 Alpha virt. eigenvalues --    0.72909   0.73529   0.74246   0.74685   0.75407
 Alpha virt. eigenvalues --    0.76205   0.77130   0.77454   0.77734   0.78293
 Alpha virt. eigenvalues --    0.78950   0.79295   0.80135   0.80934   0.81238
 Alpha virt. eigenvalues --    0.81964   0.82159   0.82861   0.84164   0.84486
 Alpha virt. eigenvalues --    0.84971   0.85679   0.85704   0.86135   0.86831
 Alpha virt. eigenvalues --    0.87586   0.87995   0.88572   0.88941   0.89526
 Alpha virt. eigenvalues --    0.91086   0.91579   0.93398   0.94030   0.95229
 Alpha virt. eigenvalues --    0.95655   0.96699   0.97279   0.98549   0.99722
 Alpha virt. eigenvalues --    1.00403   1.01408   1.02688   1.03898   1.05086
 Alpha virt. eigenvalues --    1.05906   1.07432   1.08495   1.08871   1.09800
 Alpha virt. eigenvalues --    1.11293   1.14001   1.15096   1.15346   1.16609
 Alpha virt. eigenvalues --    1.16781   1.17624   1.20338   1.20468   1.21932
 Alpha virt. eigenvalues --    1.23768   1.25044   1.26678   1.28356   1.32818
 Alpha virt. eigenvalues --    1.33142   1.36171   1.37071   1.38554   1.40742
 Alpha virt. eigenvalues --    1.42686   1.43029   1.45260   1.47818   1.50780
 Alpha virt. eigenvalues --    1.51827   1.53838   1.54789   1.56220   1.59052
 Alpha virt. eigenvalues --    1.59600   1.61184   1.61708   1.62961   1.63674
 Alpha virt. eigenvalues --    1.63910   1.64894   1.65236   1.65724   1.66966
 Alpha virt. eigenvalues --    1.67605   1.68228   1.68843   1.69790   1.70594
 Alpha virt. eigenvalues --    1.72410   1.73196   1.73329   1.73787   1.74638
 Alpha virt. eigenvalues --    1.74921   1.75808   1.76834   1.78258   1.78407
 Alpha virt. eigenvalues --    1.79029   1.80809   1.81983   1.82273   1.82888
 Alpha virt. eigenvalues --    1.84356   1.85352   1.86701   1.87076   1.88027
 Alpha virt. eigenvalues --    1.88949   1.89597   1.89940   1.90907   1.91825
 Alpha virt. eigenvalues --    1.93222   1.94162   1.95376   1.96602   1.96709
 Alpha virt. eigenvalues --    1.98779   1.99791   2.01180   2.02017   2.02867
 Alpha virt. eigenvalues --    2.04686   2.06316   2.07593   2.07900   2.09040
 Alpha virt. eigenvalues --    2.11025   2.12543   2.13790   2.15273   2.15923
 Alpha virt. eigenvalues --    2.16717   2.17522   2.19337   2.22231   2.24065
 Alpha virt. eigenvalues --    2.25144   2.27566   2.28850   2.30051   2.31074
 Alpha virt. eigenvalues --    2.31567   2.32836   2.34699   2.35028   2.37245
 Alpha virt. eigenvalues --    2.39249   2.42422   2.42742   2.43906   2.44704
 Alpha virt. eigenvalues --    2.45602   2.47894   2.49507   2.52289   2.53610
 Alpha virt. eigenvalues --    2.55513   2.56847   2.57199   2.57870   2.60307
 Alpha virt. eigenvalues --    2.61059   2.61453   2.62412   2.64999   2.65476
 Alpha virt. eigenvalues --    2.66912   2.68315   2.68902   2.69749   2.70031
 Alpha virt. eigenvalues --    2.72569   2.73765   2.74745   2.76155   2.77538
 Alpha virt. eigenvalues --    2.78965   2.80191   2.81102   2.81727   2.82915
 Alpha virt. eigenvalues --    2.83980   2.84766   2.85013   2.85454   2.86082
 Alpha virt. eigenvalues --    2.87623   2.88437   2.89108   2.89234   2.91227
 Alpha virt. eigenvalues --    2.91826   2.93725   2.94683   2.95992   2.96898
 Alpha virt. eigenvalues --    2.98133   2.98905   3.01402   3.01652   3.04318
 Alpha virt. eigenvalues --    3.05748   3.06399   3.08793   3.09739   3.10447
 Alpha virt. eigenvalues --    3.12130   3.12695   3.15918   3.19890   3.24428
 Alpha virt. eigenvalues --    3.26016   3.28586   3.32650   3.36534   3.44566
 Alpha virt. eigenvalues --    3.48903   3.51069   3.54175   3.55387   3.60088
 Alpha virt. eigenvalues --    3.66526   3.69037   3.69551   3.73003   3.78160
 Alpha virt. eigenvalues --    3.82405   3.87798   3.89955   3.91251   3.91619
 Alpha virt. eigenvalues --    3.92953   3.94182   3.94827   3.98017   4.04767
 Alpha virt. eigenvalues --    4.07997   4.10473   4.17390   4.23002   4.24572
 Alpha virt. eigenvalues --    4.26397   4.29242   4.33856   4.42350   4.46643
 Alpha virt. eigenvalues --    4.96076   4.99505   5.16677  14.86712  23.78693
 Alpha virt. eigenvalues --   23.98981  24.08138  24.08576  24.09298  24.10190
 Alpha virt. eigenvalues --   24.10781  24.11200  24.14327  24.15616  24.21186
 Alpha virt. eigenvalues --   24.24215  24.33631  35.74826
          Condensed to atoms (all electrons):
               1          2          3          4          5          6
     1  C    7.714778  -0.450550  -1.270986   0.818839  -1.164163   0.735625
     2  C   -0.450550   8.939951  -2.264892  -1.859505   2.022720  -0.723939
     3  C   -1.270986  -2.264892   8.776699   1.368683  -1.002345   0.296998
     4  C    0.818839  -1.859505   1.368683   8.223117  -1.688688  -0.690336
     5  C   -1.164163   2.022720  -1.002345  -1.688688   8.161745  -0.185649
     6  C    0.735625  -0.723939   0.296998  -0.690336  -0.185649   6.873901
     7  H    0.395787  -0.050780   0.059152   0.020649  -0.062403  -0.030147
     8  H   -0.038160   0.482679  -0.176038  -0.029390   0.053763   0.012568
     9  H   -0.033120   0.046781   0.021554  -0.045408   0.465555  -0.092407
    10  H   -0.035307  -0.033656   0.005530   0.043079  -0.021215   0.367788
    11  N    0.058696  -0.117970  -0.183335   0.033678  -0.280172   0.048859
    12  C    0.008335  -0.007809   0.001772  -0.072684  -0.022498   0.001213
    13  H   -0.018743  -0.108054   0.112995   0.138822  -0.069766  -0.015226
    14  H    0.001519   0.004244  -0.004184   0.002082   0.012060   0.007803
    15  H    0.000583  -0.002817   0.003480  -0.017075   0.001074  -0.000226
    16  C   -0.009497   0.051262  -0.065146   0.006200  -0.062134  -0.246853
    17  H    0.007292   0.003025   0.002430  -0.006098  -0.003967  -0.027501
    18  H    0.002097  -0.005964  -0.002518  -0.046100   0.017959   0.028440
    19  H   -0.005115   0.004848  -0.003836   0.027036   0.022139  -0.007368
    20  B    0.296788   0.235903  -0.044201  -0.269922  -0.055872   0.056913
    21  C   -0.134540   0.261768  -0.260338  -0.068335   0.074908  -0.007098
    22  C   -0.074071  -0.191532   0.116577   0.064367  -0.054466   0.016421
    23  C   -0.118043  -0.253665   0.260364   0.004448   0.013203  -0.013711
    24  C   -0.015861   0.094281  -0.045189  -0.060337   0.062916  -0.002226
    25  C   -0.010317  -0.073361   0.115907   0.018062  -0.014002  -0.004130
    26  H    0.000799   0.005793  -0.006765   0.001596   0.000009   0.000637
    27  H   -0.003011   0.014897  -0.022033  -0.002130   0.005578  -0.000438
    28  H   -0.000001  -0.000079   0.003583  -0.001495   0.000270  -0.000133
    29  H   -0.002488  -0.005676  -0.004814   0.008383   0.000989   0.000629
    30  H   -0.000203  -0.003662   0.006777   0.000069  -0.000752  -0.000123
    31  H   -0.001136   0.007492  -0.016678  -0.001573   0.001837  -0.000289
    32  H   -0.019024  -0.047744   0.081437   0.003111  -0.000410  -0.007173
    33  H    0.005971   0.047190  -0.081165  -0.003148   0.002893  -0.006554
    34  H   -0.008096  -0.003027   0.014608   0.001792   0.020593   0.010124
    35  H   -0.020489  -0.066064   0.038606   0.021449  -0.003640   0.002777
               7          8          9         10         11         12
     1  C    0.395787  -0.038160  -0.033120  -0.035307   0.058696   0.008335
     2  C   -0.050780   0.482679   0.046781  -0.033656  -0.117970  -0.007809
     3  C    0.059152  -0.176038   0.021554   0.005530  -0.183335   0.001772
     4  C    0.020649  -0.029390  -0.045408   0.043079   0.033678  -0.072684
     5  C   -0.062403   0.053763   0.465555  -0.021215  -0.280172  -0.022498
     6  C   -0.030147   0.012568  -0.092407   0.367788   0.048859   0.001213
     7  H    0.471412  -0.008804   0.000339  -0.008256   0.001784   0.000715
     8  H   -0.008804   0.519855  -0.000391   0.002168  -0.000812  -0.004054
     9  H    0.000339  -0.000391   0.502051  -0.008386  -0.032668   0.001652
    10  H   -0.008256   0.002168  -0.008386   0.471695  -0.004491  -0.000501
    11  N    0.001784  -0.000812  -0.032668  -0.004491   7.155072   0.148842
    12  C    0.000715  -0.004054   0.001652  -0.000501   0.148842   5.566396
    13  H    0.000346  -0.006911   0.000645  -0.000051  -0.088032   0.438266
    14  H    0.000041   0.000575  -0.000723   0.000011  -0.045922   0.339389
    15  H   -0.000017   0.000071   0.001528  -0.000099  -0.074001   0.452725
    16  C   -0.001597   0.001136   0.007359   0.002405   0.259707  -0.149378
    17  H    0.000089  -0.000210  -0.009103  -0.000219  -0.041685   0.005036
    18  H    0.000032  -0.000007  -0.004666   0.000208  -0.056129  -0.010146
    19  H   -0.000153   0.000102   0.003938   0.000325  -0.071288   0.015046
    20  B   -0.004318   0.035617  -0.013419  -0.001518   0.080013  -0.307634
    21  C   -0.000872   0.001719   0.000799  -0.000575  -0.024582   0.045011
    22  C    0.000282  -0.017774   0.001098  -0.000128  -0.023287   0.036120
    23  C    0.000728  -0.017286   0.001089  -0.000485  -0.004649   0.036883
    24  C    0.000411  -0.004377   0.001138  -0.000102   0.017801   0.000580
    25  C   -0.000173   0.000317   0.000289   0.000041  -0.002577  -0.004151
    26  H   -0.000037   0.000074  -0.000014   0.000009  -0.000931   0.001022
    27  H   -0.000023  -0.001696   0.000093  -0.000017  -0.001862   0.010140
    28  H    0.000002   0.000090  -0.000017   0.000001  -0.000001  -0.001090
    29  H    0.000007  -0.001740   0.000139  -0.000020  -0.006048   0.020837
    30  H    0.000010  -0.000054   0.000002   0.000001   0.000254  -0.001831
    31  H   -0.000031  -0.000558   0.000033  -0.000010  -0.000440   0.001859
    32  H    0.000352  -0.000008   0.000089  -0.000043   0.000683   0.005870
    33  H    0.000157  -0.004285   0.000045  -0.000188   0.000366  -0.002075
    34  H    0.000333  -0.004846   0.000913  -0.000279   0.011860   0.020839
    35  H   -0.000066  -0.006572   0.000264  -0.000049  -0.001937   0.004639
              13         14         15         16         17         18
     1  C   -0.018743   0.001519   0.000583  -0.009497   0.007292   0.002097
     2  C   -0.108054   0.004244  -0.002817   0.051262   0.003025  -0.005964
     3  C    0.112995  -0.004184   0.003480  -0.065146   0.002430  -0.002518
     4  C    0.138822   0.002082  -0.017075   0.006200  -0.006098  -0.046100
     5  C   -0.069766   0.012060   0.001074  -0.062134  -0.003967   0.017959
     6  C   -0.015226   0.007803  -0.000226  -0.246853  -0.027501   0.028440
     7  H    0.000346   0.000041  -0.000017  -0.001597   0.000089   0.000032
     8  H   -0.006911   0.000575   0.000071   0.001136  -0.000210  -0.000007
     9  H    0.000645  -0.000723   0.001528   0.007359  -0.009103  -0.004666
    10  H   -0.000051   0.000011  -0.000099   0.002405  -0.000219   0.000208
    11  N   -0.088032  -0.045922  -0.074001   0.259707  -0.041685  -0.056129
    12  C    0.438266   0.339389   0.452725  -0.149378   0.005036  -0.010146
    13  H    0.703307  -0.041342  -0.044676   0.014490  -0.002078  -0.007739
    14  H   -0.041342   0.547560  -0.044837  -0.010515  -0.001824   0.004362
    15  H   -0.044676  -0.044837   0.536556  -0.003724   0.000385   0.010401
    16  C    0.014490  -0.010515  -0.003724   5.391536   0.438276   0.412339
    17  H   -0.002078  -0.001824   0.000385   0.438276   0.530268  -0.046877
    18  H   -0.007739   0.004362   0.010401   0.412339  -0.046877   0.566981
    19  H    0.012046  -0.002653  -0.009499   0.393356  -0.013964  -0.043254
    20  B   -0.485525   0.021908   0.009697  -0.015954  -0.008773   0.007031
    21  C    0.041551  -0.012196   0.006704   0.007345  -0.000165   0.000785
    22  C    0.046716   0.024525  -0.006655   0.005138   0.001341  -0.001315
    23  C    0.065913   0.001556  -0.004511  -0.002474  -0.000189  -0.000348
    24  C    0.031054   0.000847  -0.000305   0.005068   0.000800   0.000578
    25  C    0.005177  -0.013694   0.001027   0.003578  -0.000041  -0.000364
    26  H   -0.000648   0.000343  -0.000002  -0.000152   0.000009  -0.000004
    27  H    0.006095   0.000089   0.000786  -0.000112  -0.000017   0.000170
    28  H   -0.001457   0.001222  -0.000243   0.000737  -0.000070   0.000059
    29  H    0.026823  -0.003801  -0.001013  -0.001101   0.000081  -0.000551
    30  H   -0.000429   0.000968  -0.000205   0.000162   0.000020  -0.000009
    31  H    0.004586   0.000112  -0.000019  -0.000027  -0.000021   0.000004
    32  H    0.013037  -0.002967   0.001608   0.001682  -0.000135   0.000141
    33  H    0.005736  -0.001206  -0.000208   0.001159  -0.000068   0.000030
    34  H    0.018907  -0.004960  -0.000865  -0.012972   0.002824  -0.001629
    35  H    0.009170   0.002818  -0.001254  -0.000695   0.000910  -0.000258
              19         20         21         22         23         24
     1  C   -0.005115   0.296788  -0.134540  -0.074071  -0.118043  -0.015861
     2  C    0.004848   0.235903   0.261768  -0.191532  -0.253665   0.094281
     3  C   -0.003836  -0.044201  -0.260338   0.116577   0.260364  -0.045189
     4  C    0.027036  -0.269922  -0.068335   0.064367   0.004448  -0.060337
     5  C    0.022139  -0.055872   0.074908  -0.054466   0.013203   0.062916
     6  C   -0.007368   0.056913  -0.007098   0.016421  -0.013711  -0.002226
     7  H   -0.000153  -0.004318  -0.000872   0.000282   0.000728   0.000411
     8  H    0.000102   0.035617   0.001719  -0.017774  -0.017286  -0.004377
     9  H    0.003938  -0.013419   0.000799   0.001098   0.001089   0.001138
    10  H    0.000325  -0.001518  -0.000575  -0.000128  -0.000485  -0.000102
    11  N   -0.071288   0.080013  -0.024582  -0.023287  -0.004649   0.017801
    12  C    0.015046  -0.307634   0.045011   0.036120   0.036883   0.000580
    13  H    0.012046  -0.485525   0.041551   0.046716   0.065913   0.031054
    14  H   -0.002653   0.021908  -0.012196   0.024525   0.001556   0.000847
    15  H   -0.009499   0.009697   0.006704  -0.006655  -0.004511  -0.000305
    16  C    0.393356  -0.015954   0.007345   0.005138  -0.002474   0.005068
    17  H   -0.013964  -0.008773  -0.000165   0.001341  -0.000189   0.000800
    18  H   -0.043254   0.007031   0.000785  -0.001315  -0.000348   0.000578
    19  H    0.511614  -0.003317  -0.000320   0.000994   0.000502  -0.003308
    20  B   -0.003317   9.239480  -0.064164  -0.313860  -0.941234  -0.667253
    21  C   -0.000320  -0.064164   6.015968  -0.095579  -0.516455   0.204396
    22  C    0.000994  -0.313860  -0.095579   5.747085   0.214565  -0.171079
    23  C    0.000502  -0.941234  -0.516455   0.214565   6.896162  -0.110486
    24  C   -0.003308  -0.667253   0.204396  -0.171079  -0.110486   6.261770
    25  C    0.001058   0.157969  -0.006529   0.040165  -0.163285  -0.272366
    26  H   -0.000038   0.073078  -0.029114  -0.002453   0.346322   0.019368
    27  H   -0.000188  -0.253407  -0.077063   0.045467   0.637508  -0.006341
    28  H    0.000016   0.066686  -0.005304  -0.071109   0.015443   0.404009
    29  H    0.001158  -0.265860   0.018233  -0.015725   0.020564   0.543274
    30  H   -0.000008   0.022556   0.009481   0.024897  -0.058241  -0.066462
    31  H   -0.000020  -0.191271  -0.010986   0.022927   0.009465  -0.035272
    32  H    0.000195  -0.183584   0.401318  -0.003763   0.010875  -0.004017
    33  H    0.000103  -0.259314   0.452162   0.042986   0.080145  -0.005093
    34  H   -0.001965  -0.316325   0.019800   0.432734   0.014656   0.047379
    35  H   -0.000430  -0.405838   0.015214   0.508365   0.061106   0.018352
              25         26         27         28         29         30
     1  C   -0.010317   0.000799  -0.003011  -0.000001  -0.002488  -0.000203
     2  C   -0.073361   0.005793   0.014897  -0.000079  -0.005676  -0.003662
     3  C    0.115907  -0.006765  -0.022033   0.003583  -0.004814   0.006777
     4  C    0.018062   0.001596  -0.002130  -0.001495   0.008383   0.000069
     5  C   -0.014002   0.000009   0.005578   0.000270   0.000989  -0.000752
     6  C   -0.004130   0.000637  -0.000438  -0.000133   0.000629  -0.000123
     7  H   -0.000173  -0.000037  -0.000023   0.000002   0.000007   0.000010
     8  H    0.000317   0.000074  -0.001696   0.000090  -0.001740  -0.000054
     9  H    0.000289  -0.000014   0.000093  -0.000017   0.000139   0.000002
    10  H    0.000041   0.000009  -0.000017   0.000001  -0.000020   0.000001
    11  N   -0.002577  -0.000931  -0.001862  -0.000001  -0.006048   0.000254
    12  C   -0.004151   0.001022   0.010140  -0.001090   0.020837  -0.001831
    13  H    0.005177  -0.000648   0.006095  -0.001457   0.026823  -0.000429
    14  H   -0.013694   0.000343   0.000089   0.001222  -0.003801   0.000968
    15  H    0.001027  -0.000002   0.000786  -0.000243  -0.001013  -0.000205
    16  C    0.003578  -0.000152  -0.000112   0.000737  -0.001101   0.000162
    17  H   -0.000041   0.000009  -0.000017  -0.000070   0.000081   0.000020
    18  H   -0.000364  -0.000004   0.000170   0.000059  -0.000551  -0.000009
    19  H    0.001058  -0.000038  -0.000188   0.000016   0.001158  -0.000008
    20  B    0.157969   0.073078  -0.253407   0.066686  -0.265860   0.022556
    21  C   -0.006529  -0.029114  -0.077063  -0.005304   0.018233   0.009481
    22  C    0.040165  -0.002453   0.045467  -0.071109  -0.015725   0.024897
    23  C   -0.163285   0.346322   0.637508   0.015443   0.020564  -0.058241
    24  C   -0.272366   0.019368  -0.006341   0.404009   0.543274  -0.066462
    25  C    6.091586  -0.055061  -0.094628  -0.047581  -0.078688   0.412422
    26  H   -0.055061   0.522324  -0.024812   0.000265  -0.005184  -0.005991
    27  H   -0.094628  -0.024812   0.565615  -0.002872   0.010629  -0.007803
    28  H   -0.047581   0.000265  -0.002872   0.531619  -0.027285  -0.005306
    29  H   -0.078688  -0.005184   0.010629  -0.027285   0.592871  -0.010261
    30  H    0.412422  -0.005991  -0.007803  -0.005306  -0.010261   0.516038
    31  H    0.490717  -0.004025   0.016148  -0.003734   0.011584  -0.020412
    32  H    0.008946  -0.017442   0.002689   0.001729   0.000634  -0.000040
    33  H   -0.038041  -0.019070   0.019135   0.000003   0.005782  -0.003011
    34  H   -0.018642   0.002120   0.003976  -0.018773   0.018603  -0.000303
    35  H   -0.019997   0.000872   0.007717  -0.021883   0.024884  -0.001957
              31         32         33         34         35
     1  C   -0.001136  -0.019024   0.005971  -0.008096  -0.020489
     2  C    0.007492  -0.047744   0.047190  -0.003027  -0.066064
     3  C   -0.016678   0.081437  -0.081165   0.014608   0.038606
     4  C   -0.001573   0.003111  -0.003148   0.001792   0.021449
     5  C    0.001837  -0.000410   0.002893   0.020593  -0.003640
     6  C   -0.000289  -0.007173  -0.006554   0.010124   0.002777
     7  H   -0.000031   0.000352   0.000157   0.000333  -0.000066
     8  H   -0.000558  -0.000008  -0.004285  -0.004846  -0.006572
     9  H    0.000033   0.000089   0.000045   0.000913   0.000264
    10  H   -0.000010  -0.000043  -0.000188  -0.000279  -0.000049
    11  N   -0.000440   0.000683   0.000366   0.011860  -0.001937
    12  C    0.001859   0.005870  -0.002075   0.020839   0.004639
    13  H    0.004586   0.013037   0.005736   0.018907   0.009170
    14  H    0.000112  -0.002967  -0.001206  -0.004960   0.002818
    15  H   -0.000019   0.001608  -0.000208  -0.000865  -0.001254
    16  C   -0.000027   0.001682   0.001159  -0.012972  -0.000695
    17  H   -0.000021  -0.000135  -0.000068   0.002824   0.000910
    18  H    0.000004   0.000141   0.000030  -0.001629  -0.000258
    19  H   -0.000020   0.000195   0.000103  -0.001965  -0.000430
    20  B   -0.191271  -0.183584  -0.259314  -0.316325  -0.405838
    21  C   -0.010986   0.401318   0.452162   0.019800   0.015214
    22  C    0.022927  -0.003763   0.042986   0.432734   0.508365
    23  C    0.009465   0.010875   0.080145   0.014656   0.061106
    24  C   -0.035272  -0.004017  -0.005093   0.047379   0.018352
    25  C    0.490717   0.008946  -0.038041  -0.018642  -0.019997
    26  H   -0.004025  -0.017442  -0.019070   0.002120   0.000872
    27  H    0.016148   0.002689   0.019135   0.003976   0.007717
    28  H   -0.003734   0.001729   0.000003  -0.018773  -0.021883
    29  H    0.011584   0.000634   0.005782   0.018603   0.024884
    30  H   -0.020412  -0.000040  -0.003011  -0.000303  -0.001957
    31  H    0.545786  -0.000298   0.013875   0.003987   0.016203
    32  H   -0.000298   0.552668   0.005361  -0.007578  -0.007475
    33  H    0.013875   0.005361   0.547095  -0.004872   0.005051
    34  H    0.003987  -0.007578  -0.004872   0.533510   0.033017
    35  H    0.016203  -0.007475   0.005051   0.033017   0.572819
 Mulliken charges:
               1
     1  C   -0.614187
     2  C    0.047911
     3  C    0.167313
     4  C    0.056762
     5  C   -0.248068
     6  C   -0.399170
     7  H    0.215049
     8  H    0.213237
     9  H    0.182927
    10  H    0.222334
    11  N    0.245203
    12  C   -0.579338
    13  H    0.194994
    14  H    0.216789
    15  H    0.185624
    16  C   -0.420602
    17  H    0.170218
    18  H    0.176260
    19  H    0.172247
    20  B   -0.231076
    21  C   -0.262946
    22  C   -0.349973
    23  C   -0.486436
    24  C   -0.243952
    25  C   -0.429634
    26  H    0.197102
    27  H    0.151724
    28  H    0.182697
    29  H    0.124151
    30  H    0.193402
    31  H    0.140189
    32  H    0.209272
    33  H    0.193052
    34  H    0.192557
    35  H    0.214368
 Sum of Mulliken charges =  -0.00000
 Mulliken charges with hydrogens summed into heavy atoms:
               1
     1  C   -0.399139
     2  C    0.261148
     3  C    0.167313
     4  C    0.056762
     5  C   -0.065140
     6  C   -0.176835
    11  N    0.245203
    12  C    0.018069
    16  C    0.098123
    20  B   -0.231076
    21  C    0.139378
    22  C    0.056952
    23  C   -0.137610
    24  C    0.062896
    25  C   -0.096043
 Electronic spatial extent (au):  <R**2>=           7880.1488
 Charge=             -0.0000 electrons
 Dipole moment (field-independent basis, Debye):
    X=              0.3667    Y=              1.6174    Z=             -0.2062  Tot=              1.6712
 Quadrupole moment (field-independent basis, Debye-Ang):
   XX=            -89.8381   YY=            -76.9005   ZZ=            -96.0656
   XY=              2.9721   XZ=              1.0867   YZ=             -2.9515
 Traceless Quadrupole moment (field-independent basis, Debye-Ang):
   XX=             -2.2367   YY=             10.7009   ZZ=             -8.4642
   XY=              2.9721   XZ=              1.0867   YZ=             -2.9515
 Octapole moment (field-independent basis, Debye-Ang**2):
  XXX=           -603.8501  YYY=           -599.1014  ZZZ=            -37.8891  XYY=           -174.3376
  XXY=           -220.0976  XXZ=             -8.5898  XZZ=           -199.3655  YZZ=           -237.5025
  YYZ=            -25.8068  XYZ=              6.5129
 Hexadecapole moment (field-independent basis, Debye-Ang**3):
 XXXX=          -5670.3612 YYYY=          -4305.9092 ZZZZ=           -568.6980 XXXY=          -1274.0557
 XXXZ=           -100.2743 YYYX=          -1135.0870 YYYZ=             37.7494 ZZZX=           -106.9433
 ZZZY=            110.8428 XXYY=          -1671.7144 XXZZ=          -1047.4914 YYZZ=           -897.1259
 XXYZ=             52.0613 YYXZ=            -15.8546 ZZXY=           -426.5100
 N-N= 9.819418559271D+02 E-N=-3.325273744678D+03  KE= 5.842367305428D+02
 Breneman (CHELPG) radii used.
 Generate Potential Derived Charges using the Breneman model, NDens= 1.
 Grid spacing= 0.300 Box extension= 2.800
 NStep X,Y,Z=   52     41     35   Total possible points=       74620
 Number of Points to Fit=   18700

 **********************************************************************

            Electrostatic Properties Using The SCF Density.

 **********************************************************************

       Atomic Center    1 is at  -0.857532  0.983394  0.734525
       Atomic Center    2 is at   0.531216  0.968058  0.803632
       Atomic Center    3 is at   1.319040  2.033047  0.352091
       Atomic Center    4 is at   0.660042  3.201590 -0.107095
       Atomic Center    5 is at  -0.740548  3.216915 -0.171567
       Atomic Center    6 is at  -1.484354  2.113641  0.229860
       Atomic Center    7 is at  -1.436767  0.129873  1.067188
       Atomic Center    8 is at   1.025737  0.080048  1.187405
       Atomic Center    9 is at  -1.264648  4.098622 -0.516951
       Atomic Center   10 is at  -2.566798  2.155577  0.167609
       Atomic Center   11 is at   1.409191  4.316872 -0.494397
       Atomic Center   12 is at   2.502538  4.771895  0.347881
       Atomic Center   13 is at   2.822190  3.988822  1.035852
       Atomic Center   14 is at   3.364602  5.064766 -0.259030
       Atomic Center   15 is at   2.196304  5.635071  0.957822
       Atomic Center   16 is at   0.743813  5.407212 -1.173105
       Atomic Center   17 is at   0.134597  5.031884 -1.997101
       Atomic Center   18 is at   0.105405  6.006759 -0.503777
       Atomic Center   19 is at   1.502996  6.070153 -1.594161
       Atomic Center   20 is at   2.860214  1.775499  0.243213
       Atomic Center   21 is at   3.637286  0.995227  1.378251
       Atomic Center   22 is at   3.674095  2.101823 -1.068392
       Atomic Center   23 is at   5.122012  1.383387  1.485316
       Atomic Center   24 is at   5.162904  2.404920 -0.835532
       Atomic Center   25 is at   5.814073  1.405023  0.121351
       Atomic Center   26 is at   5.647437  0.701057  2.161441
       Atomic Center   27 is at   5.203483  2.381795  1.935128
       Atomic Center   28 is at   5.704630  2.419302 -1.787088
       Atomic Center   29 is at   5.264398  3.412213 -0.410580
       Atomic Center   30 is at   6.874257  1.647938  0.247619
       Atomic Center   31 is at   5.772742  0.400502 -0.321018
       Atomic Center   32 is at   3.141633  1.058608  2.352472
       Atomic Center   33 is at   3.579798 -0.067862  1.087392
       Atomic Center   34 is at   3.199838  2.861852 -1.693515
       Atomic Center   35 is at   3.598856  1.159090 -1.639845
   18700 points will be used for fitting atomic charges
 Fitting point charges to electrostatic potential
 Charges from ESP fit, RMS=   0.00334 RRMS=   0.33812:
 ESP charges:
               1
     1  C   -0.221010
     2  C    0.013482
     3  C   -0.325428
     4  C    0.318437
     5  C   -0.254173
     6  C   -0.048376
     7  H    0.111977
     8  H    0.062045
     9  H    0.120804
    10  H    0.097449
    11  N   -0.233803
    12  C    0.005954
    13  H    0.021293
    14  H    0.072242
    15  H    0.025742
    16  C   -0.087165
    17  H    0.056864
    18  H    0.051671
    19  H    0.073438
    20  B    0.349642
    21  C   -0.026758
    22  C   -0.124332
    23  C    0.031282
    24  C    0.205977
    25  C   -0.109002
    26  H   -0.012251
    27  H   -0.005839
    28  H   -0.047126
    29  H   -0.067079
    30  H    0.010722
    31  H    0.011932
    32  H   -0.048014
    33  H    0.014254
    34  H   -0.041804
    35  H   -0.003047
 Sum of ESP charges =  -0.00000
 ESP charges with hydrogens summed into heavy atoms:
               1
     1  C   -0.109033
     2  C    0.075527
     3  C   -0.325428
     4  C    0.318437
     5  C   -0.133369
     6  C    0.049073
    11  N   -0.233803
    12  C    0.125231
    16  C    0.094809
    20  B    0.349642
    21  C   -0.060517
    22  C   -0.169183
    23  C    0.013192
    24  C    0.091772
    25  C   -0.086348
 Charge=  -0.00000 Dipole=     0.2575     1.6560    -0.1735 Tot=     1.6849
 -----------------------------------------------------------------

              Electrostatic Properties (Atomic Units)

 -----------------------------------------------------------------
    Center     Electric         -------- Electric Field --------
               Potential          X             Y             Z
 -----------------------------------------------------------------
    1 Atom    -14.792803
    2 Atom    -14.782930
    3 Atom    -14.803504
    4 Atom    -14.737894
    5 Atom    -14.787150
    6 Atom    -14.781458
    7 Atom     -1.118159
    8 Atom     -1.117844
    9 Atom     -1.109382
   10 Atom     -1.112781
   11 Atom    -18.377077
   12 Atom    -14.741289
   13 Atom     -1.100264
   14 Atom     -1.110645
   15 Atom     -1.110205
   16 Atom    -14.744740
   17 Atom     -1.108476
   18 Atom     -1.112500
   19 Atom     -1.105937
   20 Atom    -11.479966
   21 Atom    -14.805601
   22 Atom    -14.810354
   23 Atom    -14.782256
   24 Atom    -14.783754
   25 Atom    -14.786089
   26 Atom     -1.140427
   27 Atom     -1.136617
   28 Atom     -1.141510
   29 Atom     -1.137105
   30 Atom     -1.137174
   31 Atom     -1.137075
   32 Atom     -1.136807
   33 Atom     -1.116438
   34 Atom     -1.142686
   35 Atom     -1.120760
 -----------------------------------------------------------------
 Unable to Open any file for archive entry.
 1\1\GINC-IRENE5947\SP\RwB97XD\GenECP\C13H20B1N1\PENASFRA\09-Apr-2024\0
 \\# wb97xd/genecp scrf=(solvent=toluene,pcm) nosymm pop=(chelpg) scfcy
 c=300\\cyclo_dimethylaniline_chelpg\\0,1\C,0,-0.857532,0.983394,0.7345
 25\C,0,0.531216,0.968058,0.803632\C,0,1.31904,2.033047,0.352091\C,0,0.
 660042,3.20159,-0.107095\C,0,-0.740548,3.216915,-0.171567\C,0,-1.48435
 4,2.113641,0.22986\H,0,-1.436767,0.129873,1.067188\H,0,1.025737,0.0800
 48,1.187405\H,0,-1.264648,4.098622,-0.516951\H,0,-2.566798,2.155577,0.
 167609\N,0,1.409191,4.316872,-0.494397\C,0,2.502538,4.771895,0.347881\
 H,0,2.82219,3.988822,1.035852\H,0,3.364602,5.064766,-0.25903\H,0,2.196
 304,5.635071,0.957822\C,0,0.743813,5.407212,-1.173105\H,0,0.134597,5.0
 31884,-1.997101\H,0,0.105405,6.006759,-0.503777\H,0,1.502996,6.070153,
 -1.594161\B,0,2.860214,1.775499,0.243213\C,0,3.637286,0.995227,1.37825
 1\C,0,3.674095,2.101823,-1.068392\C,0,5.122012,1.383387,1.485316\C,0,5
 .162904,2.40492,-0.835532\C,0,5.814073,1.405023,0.121351\H,0,5.647437,
 0.701057,2.161441\H,0,5.203483,2.381795,1.935128\H,0,5.70463,2.419302,
 -1.787088\H,0,5.264398,3.412213,-0.41058\H,0,6.874257,1.647938,0.24761
 9\H,0,5.772742,0.400502,-0.321018\H,0,3.141633,1.058608,2.352472\H,0,3
 .579798,-0.067862,1.087392\H,0,3.199838,2.861852,-1.693515\H,0,3.59885
 6,1.15909,-1.639845\\Version=AS64L-G16RevC.02\HF=-587.0065498\RMSD=4.6
 39e-09\Dipole=0.1442748,0.6363402,-0.0811079\Quadrupole=-1.6629167,7.9
 558207,-6.292904,2.2097116,0.8079571,-2.1943356\PG=C01 [X(C13H20B1N1)]
 \\@
 The archive entry for this job was punched.


 Where a calculator on the ENIAC is equipped with 18,000
 vacuum tubes and weighs 30 tons, computers inthe future
 may  have only 1,000 vacuum tubes and weigh only 1 1/2 tons.
              ---Popular Mechanics, March 1949
 Job cpu time:       0 days  1 hours 22 minutes 51.8 seconds.
 Elapsed time:       0 days  0 hours  0 minutes 50.0 seconds.
 File lengths (MBytes):  RWF=    206 Int=      0 D2E=      0 Chk=     15 Scr=      1
 Normal termination of Gaussian 16 at Tue Apr  9 18:25:32 2024.
