 Entering Gaussian System, Link 0=/ccc/products/gaussian-16-C.02/system/default/g16/g16
 Input=cyclo5_dimethylaniline_chelpg.gjf
 Output=cyclo5_dimethylaniline_chelpg.log
 Initial command:
 /ccc/products/gaussian-16-C.02/system/default/g16/l1.exe "/ccc/scratch/cont003/gen7343/penasfra/flp/b-n_flp/cyclo5_dimethylaniline/Reactant/Gau-3842962.inp" -scrdir="/ccc/scratch/cont003/gen7343/penasfra/flp/b-n_flp/cyclo5_dimethylaniline/Reactant/"
 Entering Link 1 = /ccc/products/gaussian-16-C.02/system/default/g16/l1.exe PID=   3843011.
  
 Copyright (c) 1988-2021, Gaussian, Inc.  All Rights Reserved.
  
 This is part of the Gaussian(R) 16 program.  It is based on
 the Gaussian(R) 09 system (copyright 2009, Gaussian, Inc.),
 the Gaussian(R) 03 system (copyright 2003, Gaussian, Inc.),
 the Gaussian(R) 98 system (copyright 1998, Gaussian, Inc.),
 the Gaussian(R) 94 system (copyright 1995, Gaussian, Inc.),
 the Gaussian 92(TM) system (copyright 1992, Gaussian, Inc.),
 the Gaussian 90(TM) system (copyright 1990, Gaussian, Inc.),
 the Gaussian 88(TM) system (copyright 1988, Gaussian, Inc.),
 the Gaussian 86(TM) system (copyright 1986, Carnegie Mellon
 University), and the Gaussian 82(TM) system (copyright 1983,
 Carnegie Mellon University). Gaussian is a federally registered
 trademark of Gaussian, Inc.
  
 This software contains proprietary and confidential information,
 including trade secrets, belonging to Gaussian, Inc.
  
 This software is provided under written license and may be
 used, copied, transmitted, or stored only in accord with that
 written license.
  
 The following legend is applicable only to US Government
 contracts under FAR:
  
                    RESTRICTED RIGHTS LEGEND
  
 Use, reproduction and disclosure by the US Government is
 subject to restrictions as set forth in subparagraphs (a)
 and (c) of the Commercial Computer Software - Restricted
 Rights clause in FAR 52.227-19.
  
 Gaussian, Inc.
 340 Quinnipiac St., Bldg. 40, Wallingford CT 06492
  
  
 ---------------------------------------------------------------
 Warning -- This program may not be used in any manner that
 competes with the business of Gaussian, Inc. or will provide
 assistance to any competitor of Gaussian, Inc.  The licensee
 of this program is prohibited from giving any competitor of
 Gaussian, Inc. access to this program.  By using this program,
 the user acknowledges that Gaussian, Inc. is engaged in the
 business of creating and licensing software in the field of
 computational chemistry and represents and warrants to the
 licensee that it is not a competitor of Gaussian, Inc. and that
 it will not use this program in any manner prohibited above.
 ---------------------------------------------------------------
  

 Cite this work as:
 Gaussian 16, Revision C.02,
 M. J. Frisch, G. W. Trucks, H. B. Schlegel, G. E. Scuseria, 
 M. A. Robb, J. R. Cheeseman, G. Scalmani, V. Barone, 
 G. A. Petersson, H. Nakatsuji, X. Li, M. Caricato, A. V. Marenich, 
 J. Bloino, B. G. Janesko, R. Gomperts, B. Mennucci, H. P. Hratchian, 
 J. V. Ortiz, A. F. Izmaylov, J. L. Sonnenberg, D. Williams-Young, 
 F. Ding, F. Lipparini, F. Egidi, J. Goings, B. Peng, A. Petrone, 
 T. Henderson, D. Ranasinghe, V. G. Zakrzewski, J. Gao, N. Rega, 
 G. Zheng, W. Liang, M. Hada, M. Ehara, K. Toyota, R. Fukuda, 
 J. Hasegawa, M. Ishida, T. Nakajima, Y. Honda, O. Kitao, H. Nakai, 
 T. Vreven, K. Throssell, J. A. Montgomery, Jr., J. E. Peralta, 
 F. Ogliaro, M. J. Bearpark, J. J. Heyd, E. N. Brothers, K. N. Kudin, 
 V. N. Staroverov, T. A. Keith, R. Kobayashi, J. Normand, 
 K. Raghavachari, A. P. Rendell, J. C. Burant, S. S. Iyengar, 
 J. Tomasi, M. Cossi, J. M. Millam, M. Klene, C. Adamo, R. Cammi, 
 J. W. Ochterski, R. L. Martin, K. Morokuma, O. Farkas, 
 J. B. Foresman, and D. J. Fox, Gaussian, Inc., Wallingford CT, 2019.
 
 ******************************************
 Gaussian 16:  AS64L-G16RevC.02  7-Dec-2021
                10-Apr-2024 
 ******************************************
 %nprocshared=128
 Will use up to  128 processors via shared memory.
 %mem=30GB
 %chk=cyclo5_dimethylaniline_chelpg.chk
 ----------------------------------------------------------------------
 # wb97xd/genecp scrf=(solvent=toluene,pcm) nosymm pop=(chelpg) scfcyc=
 300
 ----------------------------------------------------------------------
 1/38=1,172=1/1;
 2/12=2,15=1,17=6,18=5,40=1/2;
 3/5=7,11=2,16=1,17=8,25=1,30=1,70=2201,72=13,74=-58/1,2,3;
 4//1;
 5/5=2,7=300,38=5,53=13/2;
 6/7=2,8=2,9=2,10=2,15=8,20=3,28=1/1,2;
 99/5=1,9=1/99;
 -----------------------------
 cyclo5_dimethylaniline_chelpg
 -----------------------------
 Symbolic Z-matrix:
 Charge =  0 Multiplicity = 1
 C                    -0.82191   1.08062   0.96986 
 C                     0.56628   1.04994   0.98991 
 C                     1.35473   2.06992   0.43559 
 C                     0.68533   3.20617  -0.08926 
 C                    -0.71417   3.22573  -0.12758 
 C                    -1.45578   2.16969   0.3873 
 H                    -1.39854   0.26399   1.38857 
 H                     1.06258   0.18351   1.41541 
 H                    -1.23755   4.079    -0.5399 
 H                    -2.53927   2.21462   0.34982 
 N                     1.43657   4.29297  -0.56959 
 C                     2.28464   4.97678   0.39675 
 H                     2.6774    4.27724   1.13191 
 H                     3.12779   5.45196  -0.1128 
 H                     1.72262   5.756     0.93655 
 C                     0.77835   5.23142  -1.45559 
 H                     0.24737   4.6989   -2.24615 
 H                     0.06863   5.89648  -0.93568 
 H                     1.54001   5.86024  -1.9229 
 C                     3.66164   0.61547   1.00431 
 C                     3.87077   2.35833  -0.82702 
 C                     5.12366   0.7901    0.55038 
 H                     3.2782   -0.34452   0.62236 
 H                     3.52702   0.58003   2.08973 
 C                     5.02366   1.33725  -0.88075 
 H                     4.25413   3.30327  -0.41316 
 H                     3.43202   2.61811  -1.79372 
 H                     5.61857   1.53388   1.1869 
 H                     5.71347  -0.12881   0.61267 
 H                     5.96668   1.76148  -1.23757 
 H                     4.76031   0.5195   -1.56279 
 B                     2.86913   1.75672   0.23817 
 
                          Input orientation:                          
 ---------------------------------------------------------------------
 Center     Atomic      Atomic             Coordinates (Angstroms)
 Number     Number       Type             X           Y           Z
 ---------------------------------------------------------------------
      1          6           0       -0.821912    1.080624    0.969861
      2          6           0        0.566283    1.049937    0.989911
      3          6           0        1.354731    2.069917    0.435594
      4          6           0        0.685325    3.206166   -0.089263
      5          6           0       -0.714169    3.225733   -0.127576
      6          6           0       -1.455775    2.169693    0.387297
      7          1           0       -1.398543    0.263992    1.388569
      8          1           0        1.062580    0.183505    1.415413
      9          1           0       -1.237549    4.078998   -0.539901
     10          1           0       -2.539271    2.214623    0.349819
     11          7           0        1.436572    4.292974   -0.569592
     12          6           0        2.284642    4.976781    0.396748
     13          1           0        2.677397    4.277242    1.131912
     14          1           0        3.127791    5.451958   -0.112795
     15          1           0        1.722623    5.755996    0.936549
     16          6           0        0.778346    5.231425   -1.455591
     17          1           0        0.247370    4.698900   -2.246151
     18          1           0        0.068631    5.896480   -0.935682
     19          1           0        1.540005    5.860244   -1.922896
     20          6           0        3.661643    0.615473    1.004305
     21          6           0        3.870767    2.358334   -0.827021
     22          6           0        5.123663    0.790095    0.550375
     23          1           0        3.278202   -0.344522    0.622363
     24          1           0        3.527024    0.580030    2.089726
     25          6           0        5.023658    1.337245   -0.880753
     26          1           0        4.254135    3.303269   -0.413158
     27          1           0        3.432015    2.618112   -1.793715
     28          1           0        5.618566    1.533878    1.186897
     29          1           0        5.713474   -0.128805    0.612667
     30          1           0        5.966684    1.761482   -1.237565
     31          1           0        4.760305    0.519498   -1.562793
     32          5           0        2.869134    1.756724    0.238169
 ---------------------------------------------------------------------
                    Distance matrix (angstroms):
                    1          2          3          4          5
     1  C    0.000000
     2  C    1.388679   0.000000
     3  C    2.449881   1.403309   0.000000
     4  C    2.812727   2.414148   1.419381   0.000000
     5  C    2.411943   2.760874   2.435861   1.400155   0.000000
     6  C    1.388249   2.388664   2.812691   2.426045   1.389350
     7  H    1.083839   2.153411   3.427834   3.896522   3.396906
     8  H    2.134162   1.085388   2.145681   3.397477   3.846141
     9  H    3.382659   3.843091   3.421683   2.159249   1.082589
    10  H    2.149355   3.377969   3.897634   3.402054   2.140385
    11  N    4.217803   3.702262   2.441123   1.405788   2.441325
    12  C    5.015892   4.327205   3.052229   2.434974   3.511973
    13  H    4.742340   3.859076   2.665818   2.570374   3.767586
    14  H    5.990063   5.211053   3.857807   3.318098   4.440378
    15  H    5.323051   4.846335   3.738112   2.937671   3.670497
    16  C    5.066833   4.848741   3.728798   2.444827   2.830905
    17  H    4.957622   4.887610   3.915298   2.659366   2.753750
    18  H    5.255153   5.238754   4.263453   2.886958   2.898051
    19  H    6.065597   5.707156   4.468040   3.337187   3.904500
    20  C    4.507751   3.125735   2.785800   4.094637   5.219420
    21  C    5.184840   3.991586   2.829809   3.377891   4.718394
    22  C    5.967431   4.585894   3.981955   5.093661   6.361779
    23  H    4.354622   3.071500   3.092594   4.453853   5.408156
    24  H    4.518621   3.193179   3.110430   4.440702   5.468445
    25  C    6.136882   4.842533   3.966182   4.789620   6.087390
    26  H    5.711317   4.543827   3.263140   3.584793   4.977109
    27  H    5.300671   4.291872   3.096037   3.285616   4.509553
    28  H    6.460054   5.079229   4.362578   5.363021   6.685338
    29  H    6.655943   5.293895   4.885118   6.074292   7.288037
    30  H    7.170867   5.884919   4.915761   5.594503   6.928918
    31  H    6.155513   4.938369   4.242085   5.098523   6.273231
    32  B    3.823128   2.523447   1.559001   2.641423   3.889964
                    6          7          8          9         10
     6  C    0.000000
     7  H    2.153490   0.000000
     8  H    3.368097   2.462585   0.000000
     9  H    2.133721   4.277755   4.928358   0.000000
    10  H    1.085075   2.487011   4.270159   2.441716   0.000000
    11  N    3.713439   5.301412   4.579067   2.682833   4.579540
    12  C    4.676596   6.062998   5.050407   3.753552   5.558944
    13  H    4.698864   5.725848   4.409840   4.261580   5.663894
    14  H    5.659720   7.046757   5.861494   4.596045   6.542931
    15  H    4.823428   6.333096   5.631840   3.708753   5.572191
    16  C    4.214467   6.124009   5.814202   2.496079   4.833961
    17  H    4.028975   5.965621   5.870299   2.345326   4.547094
    18  H    4.238281   6.267349   6.257289   2.272881   4.691454
    19  H    5.285060   7.135748   6.602848   3.577753   5.924211
    20  C    5.383704   5.086913   2.666596   6.195374   6.437155
    21  C    5.466462   6.087753   4.200513   5.397964   6.518757
    22  C    6.724499   6.596857   4.196265   7.243659   7.796798
    23  H    5.365358   4.778002   2.411788   6.427316   6.361328
    24  H    5.500325   4.985249   2.585617   6.469843   6.519134
    25  C    6.654620   6.895387   4.721613   6.843691   7.712457
    26  H    5.876121   6.666048   4.823134   5.547649   6.922258
    27  H    5.371069   6.245246   4.673332   5.050848   6.357185
    28  H    7.147721   7.133940   4.757387   7.514372   8.228877
    29  H    7.532066   7.164991   4.729985   8.206750   8.583038
    30  H    7.609186   7.961509   5.794699   7.599907   8.664664
    31  H    6.720539   6.834269   4.759808   7.049156   7.734038
    32  B    4.347139   4.665269   2.669187   4.781547   5.428902
                   11         12         13         14         15
    11  N    0.000000
    12  C    1.456238   0.000000
    13  H    2.105946   1.088153   0.000000
    14  H    2.100507   1.093768   1.769776   0.000000
    15  H    2.119132   1.102010   1.771009   1.779904   0.000000
    16  C    1.448774   2.401027   3.348437   2.715074   2.624722
    17  H    2.095191   3.348524   4.182599   3.662667   3.663796
    18  H    2.139279   2.744434   3.701694   3.198938   2.502134
    19  H    2.073274   2.591474   3.623728   2.442177   2.867166
    20  C    4.577347   4.613704   3.793887   4.992444   5.494485
    21  C    3.120001   3.296918   2.990612   3.260773   4.389625
    22  C    5.207603   5.060828   4.299139   5.114320   6.031283
    23  H    5.130178   5.417964   4.688423   5.844849   6.303559
    24  H    5.022740   4.872485   3.912627   5.361545   5.601456
    25  C    4.658362   4.730797   4.266069   4.595099   5.807304
    26  H    2.990426   2.708411   2.412875   2.444531   3.774405
    27  H    2.878443   3.417296   3.446949   3.308886   4.496963
    28  H    5.309137   4.857259   4.022380   4.821256   5.750420
    29  H    6.264324   6.153903   5.375931   6.193300   7.117772
    30  H    5.232261   5.154276   4.771046   4.789993   6.220528
    31  H    5.125697   5.462241   5.071546   5.394141   6.549438
    32  B    3.022793   3.276514   2.681147   3.720865   4.218578
                   16         17         18         19         20
    16  C    0.000000
    17  H    1.091102   0.000000
    18  H    1.102859   1.784229   0.000000
    19  H    1.092663   1.767518   1.772243   0.000000
    20  C    5.972562   6.236754   6.675501   6.370045   0.000000
    21  C    4.267648   4.541055   5.194855   4.347041   2.536740
    22  C    6.529249   6.846718   7.337362   6.683269   1.540795
    23  H    6.454329   6.546023   7.188808   6.928116   1.102042
    24  H    6.462196   6.820634   7.026964   6.923152   1.094311
    25  C    5.789452   5.998163   6.733642   5.803397   2.435053
    26  H    4.109204   4.621884   4.951385   4.022926   3.095884
    27  H    3.739745   3.830971   4.774544   3.756036   3.448508
    28  H    6.639452   7.117087   7.371527   6.709912   2.169414
    29  H    7.573985   7.833126   8.400339   7.727589   2.217508
    30  H    6.245550   6.508166   7.209464   6.071657   3.413580
    31  H    6.170069   6.188777   7.163589   6.246885   2.793969
    32  B    4.394743   4.658529   5.134036   4.824486   1.586660
                   21         22         23         24         25
    21  C    0.000000
    22  C    2.434408   0.000000
    23  H    3.123664   2.167548   0.000000
    24  H    3.433357   2.227776   1.752102   0.000000
    25  C    1.540996   1.535416   2.852072   3.411310   0.000000
    26  H    1.100525   2.828519   3.915498   3.769503   2.162420
    27  H    1.092925   3.420245   3.826002   4.386789   2.237733
    28  H    2.791128   1.096951   3.053586   2.469711   2.160499
    29  H    3.413815   1.093679   2.444827   2.732163   2.203509
    30  H    2.217577   2.202500   3.888769   4.291694   1.093888
    31  H    2.171165   2.161187   2.778141   3.855586   1.096925
    32  B    1.581086   2.472801   2.174897   2.290347   2.463721
                   26         27         28         29         30
    26  H    0.000000
    27  H    1.746785   0.000000
    28  H    2.748198   3.852352   0.000000
    29  H    3.867961   4.305959   1.761608   0.000000
    30  H    2.447361   2.732703   2.459879   2.657190   0.000000
    31  H    3.054055   2.494366   3.053911   2.462002   1.761717
    32  B    2.175835   2.277581   2.917040   3.433036   3.431127
                   31         32
    31  H    0.000000
    32  B    2.889761   0.000000
 Symmetry turned off by external request.
 Stoichiometry    C12H18BN
 Framework group  C1[X(C12H18BN)]
 Deg. of freedom    90
 Full point group                 C1      NOp   1
 Rotational constants (GHZ):           0.9829451           0.5306751           0.3768048
 General basis read from cards:  (5D, 7F)
 ======================================================================================================
                                       Pseudopotential Parameters
 ======================================================================================================
  Center     Atomic      Valence      Angular      Power
  Number     Number     Electrons     Momentum     of R      Exponent        Coefficient   SO-Coeffient
 ======================================================================================================
    1          6
                                   No pseudopotential on this center.
    2          6
                                   No pseudopotential on this center.
    3          6
                                   No pseudopotential on this center.
    4          6
                                   No pseudopotential on this center.
    5          6
                                   No pseudopotential on this center.
    6          6
                                   No pseudopotential on this center.
    7          1
                                   No pseudopotential on this center.
    8          1
                                   No pseudopotential on this center.
    9          1
                                   No pseudopotential on this center.
   10          1
                                   No pseudopotential on this center.
   11          7
                                   No pseudopotential on this center.
   12          6
                                   No pseudopotential on this center.
   13          1
                                   No pseudopotential on this center.
   14          1
                                   No pseudopotential on this center.
   15          1
                                   No pseudopotential on this center.
   16          6
                                   No pseudopotential on this center.
   17          1
                                   No pseudopotential on this center.
   18          1
                                   No pseudopotential on this center.
   19          1
                                   No pseudopotential on this center.
   20          6
                                   No pseudopotential on this center.
   21          6
                                   No pseudopotential on this center.
   22          6
                                   No pseudopotential on this center.
   23          1
                                   No pseudopotential on this center.
   24          1
                                   No pseudopotential on this center.
   25          6
                                   No pseudopotential on this center.
   26          1
                                   No pseudopotential on this center.
   27          1
                                   No pseudopotential on this center.
   28          1
                                   No pseudopotential on this center.
   29          1
                                   No pseudopotential on this center.
   30          1
                                   No pseudopotential on this center.
   31          1
                                   No pseudopotential on this center.
   32          5
                                   No pseudopotential on this center.
 ======================================================================================================
   434 basis functions,   666 primitive gaussians,   448 cartesian basis functions
    51 alpha electrons       51 beta electrons
       nuclear repulsion energy       865.2241648404 Hartrees.
 NAtoms=   32 NActive=   32 NUniq=   32 SFac= 1.00D+00 NAtFMM=   60 NAOKFM=F Big=F
 Integral buffers will be    131072 words long.
 Raffenetti 2 integral format.
 Two-electron integral symmetry is turned off.
 Nuclear repulsion after empirical dispersion term =      865.1992513116 Hartrees.
 ------------------------------------------------------------------------------
 Polarizable Continuum Model (PCM)
 =================================
 Model                : PCM.
 Atomic radii         : UFF (Universal Force Field).
 Polarization charges : Total charges.
 Charge compensation  : None.
 Solution method      : On-the-fly selection.
 Cavity type          : Scaled VdW (van der Waals Surface) (Alpha=1.100).
 Cavity algorithm     : GePol (No added spheres)
                        Default sphere list used, NSphG=   32.
                        Lebedev-Laikov grids with approx.  5.0 points / Ang**2.
                        Smoothing algorithm: York/Karplus (Gamma=1.0000).
                        Polarization charges: spherical gaussians, with
                                              point-specific exponents (IZeta= 3).
                        Self-potential: point-specific (ISelfS= 7).
                        Self-field    : sphere-specific E.n sum rule (ISelfD= 2).
 Solvent              : Toluene, Eps=   2.374100 Eps(inf)=   2.238315
 ------------------------------------------------------------------------------
 One-electron integrals computed using PRISM.
   1 Symmetry operations used in ECPInt.
 ECPInt:  NShTT=   15225 NPrTT=   47892 LenC2=   14494 LenP2D=   33714.
 LDataN:  DoStor=T MaxTD1= 4 Len=   56
 Number of processors reduced to  99 by ecpmxn.
 NBasis=   434 RedAO= T EigKep=  1.90D-06  NBF=   434
 NBsUse=   432 1.00D-06 EigRej=  8.93D-07 NBFU=   432
 ExpMin= 3.15D-02 ExpMax= 6.29D+03 ExpMxC= 9.49D+02 IAcc=3 IRadAn=         5 AccDes= 0.00D+00
 Harris functional with IExCor= 4639 and IRadAn=       5 diagonalized for initial guess.
 HarFok:  IExCor= 4639 AccDes= 0.00D+00 IRadAn=         5 IDoV= 1 UseB2=F ITyADJ=14
 ICtDFT=  3500011 ScaDFX=  1.000000  1.000000  1.000000  1.000000
 FoFCou: FMM=F IPFlag=           0 FMFlag=      100000 FMFlg1=           0
         NFxFlg=           0 DoJE=T BraDBF=F KetDBF=T FulRan=T
         wScrn=  0.000000 ICntrl=       500 IOpCl=  0 I1Cent=   200000004 NGrid=           0
         NMat0=    1 NMatS0=      1 NMatT0=    0 NMatD0=    1 NMtDS0=    0 NMtDT0=    0
 Symmetry not used in FoFCou.
 Requested convergence on RMS density matrix=1.00D-08 within 300 cycles.
 Requested convergence on MAX density matrix=1.00D-06.
 Requested convergence on             energy=1.00D-06.
 No special actions if energy rises.
 Inv3:  Mode=1 IEnd=    14440908.
 Iteration    1 A*A^-1 deviation from unit magnitude is 5.11D-15 for   2187.
 Iteration    1 A*A^-1 deviation from orthogonality  is 3.83D-15 for   2187   1958.
 Iteration    1 A^-1*A deviation from unit magnitude is 4.88D-15 for   2187.
 Iteration    1 A^-1*A deviation from orthogonality  is 1.62D-15 for   1365     72.
 Error on total polarization charges =  0.00976
 SCF Done:  E(RwB97XD) =  -547.687851359     A.U. after   16 cycles
            NFock= 16  Conv=0.69D-08     -V/T= 2.0047

 **********************************************************************

            Population analysis using the SCF Density.

 **********************************************************************

 Alpha  occ. eigenvalues --  -14.44167 -10.32823 -10.30737 -10.30576 -10.29279
 Alpha  occ. eigenvalues --  -10.28948 -10.28286 -10.28019 -10.26778 -10.26656
 Alpha  occ. eigenvalues --  -10.26655 -10.24854 -10.24508  -6.83158  -1.04801
 Alpha  occ. eigenvalues --   -0.94981  -0.90112  -0.84874  -0.84648  -0.81323
 Alpha  occ. eigenvalues --   -0.79038  -0.75404  -0.73378  -0.69594  -0.67136
 Alpha  occ. eigenvalues --   -0.64854  -0.61650  -0.56891  -0.56333  -0.55897
 Alpha  occ. eigenvalues --   -0.55377  -0.54363  -0.53148  -0.51577  -0.50724
 Alpha  occ. eigenvalues --   -0.48750  -0.48385  -0.47211  -0.46448  -0.45554
 Alpha  occ. eigenvalues --   -0.44917  -0.43986  -0.43089  -0.41190  -0.40446
 Alpha  occ. eigenvalues --   -0.39355  -0.38101  -0.36698  -0.35431  -0.33074
 Alpha  occ. eigenvalues --   -0.28005
 Alpha virt. eigenvalues --    0.01551   0.03826   0.04813   0.04876   0.05692
 Alpha virt. eigenvalues --    0.06142   0.06286   0.06326   0.07001   0.07216
 Alpha virt. eigenvalues --    0.08225   0.08407   0.08557   0.09307   0.09769
 Alpha virt. eigenvalues --    0.10020   0.10444   0.10701   0.11299   0.11637
 Alpha virt. eigenvalues --    0.12558   0.12931   0.13952   0.14507   0.14637
 Alpha virt. eigenvalues --    0.14967   0.15817   0.15904   0.16712   0.16843
 Alpha virt. eigenvalues --    0.17504   0.17664   0.17835   0.18093   0.18474
 Alpha virt. eigenvalues --    0.18812   0.19070   0.19403   0.19651   0.19702
 Alpha virt. eigenvalues --    0.20053   0.20322   0.20595   0.20647   0.21057
 Alpha virt. eigenvalues --    0.21214   0.21804   0.21989   0.22275   0.23017
 Alpha virt. eigenvalues --    0.23145   0.23390   0.23706   0.23914   0.24269
 Alpha virt. eigenvalues --    0.24687   0.24968   0.25347   0.25663   0.26125
 Alpha virt. eigenvalues --    0.26409   0.26988   0.27181   0.27442   0.28094
 Alpha virt. eigenvalues --    0.28308   0.28655   0.29471   0.29840   0.30434
 Alpha virt. eigenvalues --    0.30834   0.31663   0.31824   0.32438   0.32647
 Alpha virt. eigenvalues --    0.33296   0.33406   0.34343   0.34636   0.34940
 Alpha virt. eigenvalues --    0.35720   0.35946   0.36036   0.36449   0.36714
 Alpha virt. eigenvalues --    0.37582   0.38290   0.38644   0.38742   0.39097
 Alpha virt. eigenvalues --    0.40085   0.40769   0.40880   0.41576   0.41997
 Alpha virt. eigenvalues --    0.42225   0.43080   0.43950   0.44365   0.45156
 Alpha virt. eigenvalues --    0.45858   0.46789   0.47900   0.49000   0.49997
 Alpha virt. eigenvalues --    0.50759   0.52075   0.54325   0.55929   0.56057
 Alpha virt. eigenvalues --    0.57437   0.58229   0.58527   0.59552   0.61171
 Alpha virt. eigenvalues --    0.61699   0.63538   0.63822   0.64060   0.64750
 Alpha virt. eigenvalues --    0.65667   0.65951   0.67053   0.67513   0.68321
 Alpha virt. eigenvalues --    0.69507   0.69763   0.70924   0.71633   0.72926
 Alpha virt. eigenvalues --    0.73254   0.74055   0.74676   0.75368   0.75968
 Alpha virt. eigenvalues --    0.76263   0.76550   0.77499   0.78218   0.79013
 Alpha virt. eigenvalues --    0.79336   0.79974   0.80468   0.80979   0.81741
 Alpha virt. eigenvalues --    0.82062   0.83355   0.83713   0.84665   0.85189
 Alpha virt. eigenvalues --    0.86095   0.86497   0.86836   0.87676   0.88062
 Alpha virt. eigenvalues --    0.89203   0.89307   0.90063   0.90587   0.91315
 Alpha virt. eigenvalues --    0.92359   0.94032   0.95064   0.95715   0.96526
 Alpha virt. eigenvalues --    0.96850   0.99154   1.00262   1.01141   1.02359
 Alpha virt. eigenvalues --    1.03750   1.05078   1.05539   1.06837   1.08893
 Alpha virt. eigenvalues --    1.11378   1.11996   1.14040   1.14535   1.15176
 Alpha virt. eigenvalues --    1.16359   1.18860   1.19878   1.21563   1.22625
 Alpha virt. eigenvalues --    1.23256   1.23722   1.25291   1.28389   1.29330
 Alpha virt. eigenvalues --    1.33980   1.36617   1.37129   1.38644   1.38938
 Alpha virt. eigenvalues --    1.42161   1.46973   1.47985   1.51088   1.52683
 Alpha virt. eigenvalues --    1.53262   1.54407   1.56421   1.57733   1.59112
 Alpha virt. eigenvalues --    1.59623   1.61453   1.62555   1.62906   1.64137
 Alpha virt. eigenvalues --    1.64252   1.66011   1.66458   1.66702   1.68246
 Alpha virt. eigenvalues --    1.69610   1.70859   1.71059   1.71770   1.73248
 Alpha virt. eigenvalues --    1.73399   1.74041   1.75528   1.77042   1.77598
 Alpha virt. eigenvalues --    1.78402   1.79457   1.80098   1.81022   1.82638
 Alpha virt. eigenvalues --    1.83013   1.83399   1.83894   1.83927   1.85907
 Alpha virt. eigenvalues --    1.87381   1.88125   1.89685   1.90582   1.91692
 Alpha virt. eigenvalues --    1.93329   1.95476   1.97077   1.97155   1.99194
 Alpha virt. eigenvalues --    1.99588   2.00011   2.02269   2.02899   2.03077
 Alpha virt. eigenvalues --    2.04922   2.06316   2.07139   2.08941   2.10558
 Alpha virt. eigenvalues --    2.11470   2.13631   2.14850   2.16135   2.16752
 Alpha virt. eigenvalues --    2.19443   2.20101   2.22303   2.23796   2.25159
 Alpha virt. eigenvalues --    2.26750   2.28071   2.29006   2.31219   2.33242
 Alpha virt. eigenvalues --    2.33415   2.34406   2.38046   2.38424   2.39583
 Alpha virt. eigenvalues --    2.41508   2.43689   2.45067   2.48532   2.52654
 Alpha virt. eigenvalues --    2.53769   2.54266   2.55162   2.56712   2.57451
 Alpha virt. eigenvalues --    2.58820   2.60007   2.60668   2.62705   2.63433
 Alpha virt. eigenvalues --    2.65313   2.67726   2.69422   2.69906   2.70969
 Alpha virt. eigenvalues --    2.71986   2.72670   2.73972   2.74987   2.76209
 Alpha virt. eigenvalues --    2.78683   2.80444   2.80742   2.80882   2.82005
 Alpha virt. eigenvalues --    2.82551   2.83234   2.84503   2.84908   2.86746
 Alpha virt. eigenvalues --    2.88287   2.89232   2.90719   2.91379   2.92464
 Alpha virt. eigenvalues --    2.93325   2.95072   2.95783   2.97980   2.98646
 Alpha virt. eigenvalues --    3.00261   3.00972   3.02491   3.04758   3.07136
 Alpha virt. eigenvalues --    3.08723   3.10856   3.12428   3.15366   3.16569
 Alpha virt. eigenvalues --    3.19350   3.21478   3.25573   3.29495   3.36227
 Alpha virt. eigenvalues --    3.36457   3.45968   3.48042   3.49400   3.56849
 Alpha virt. eigenvalues --    3.59197   3.65551   3.67547   3.69257   3.75524
 Alpha virt. eigenvalues --    3.76372   3.83684   3.85759   3.87077   3.89624
 Alpha virt. eigenvalues --    3.89953   3.91745   3.94221   3.98008   4.02461
 Alpha virt. eigenvalues --    4.04312   4.12090   4.17259   4.24657   4.29812
 Alpha virt. eigenvalues --    4.34385   4.36388   4.40700   4.42789   4.94987
 Alpha virt. eigenvalues --    4.98579   5.14115  14.88451  23.78268  24.01419
 Alpha virt. eigenvalues --   24.07277  24.08213  24.08672  24.09462  24.11296
 Alpha virt. eigenvalues --   24.13452  24.16867  24.20476  24.23706  24.33086
 Alpha virt. eigenvalues --   35.74039
          Condensed to atoms (all electrons):
               1          2          3          4          5          6
     1  C    8.384688  -0.903553  -1.480467   1.409298  -1.301835   0.467055
     2  C   -0.903553   9.262823  -1.936178  -2.588252   1.928991  -0.217605
     3  C   -1.480467  -1.936178   8.606363   1.124813  -0.542350   0.266228
     4  C    1.409298  -2.588252   1.124813  10.336396  -2.230457  -1.102881
     5  C   -1.301835   1.928991  -0.542350  -2.230457   7.796519   0.236810
     6  C    0.467055  -0.217605   0.266228  -1.102881   0.236810   6.533778
     7  H    0.408253  -0.073204   0.054808   0.039025  -0.054662  -0.034304
     8  H   -0.115840   0.542218  -0.148239  -0.057730   0.055025   0.014018
     9  H   -0.035732   0.041807   0.030885  -0.067649   0.457856  -0.052131
    10  H   -0.022752  -0.023758  -0.001228   0.037433  -0.034924   0.368355
    11  N    0.021048  -0.044153  -0.239784  -0.322846  -0.131873   0.067874
    12  C    0.007813   0.108124  -0.104934  -0.306045   0.069608   0.001894
    13  H   -0.024558  -0.031361   0.097734   0.034799   0.003451   0.001716
    14  H   -0.001878  -0.001705  -0.003842   0.027534   0.001911   0.006098
    15  H    0.005842  -0.011989  -0.006599   0.012809  -0.009441  -0.000071
    16  C    0.003401   0.032785  -0.072899  -0.040045  -0.096649  -0.204995
    17  H    0.013802  -0.000646  -0.002326   0.005147  -0.016204  -0.022601
    18  H   -0.004384  -0.007318  -0.001091  -0.014322   0.012998   0.028412
    19  H   -0.003273   0.005219  -0.001160   0.031502   0.016297  -0.006867
    20  C   -0.167244   0.338741  -0.281975  -0.174964   0.088430   0.039754
    21  C   -0.047224  -0.108784   0.023566   0.001633  -0.059632   0.019040
    22  C   -0.120016  -0.280624   0.376607  -0.002371   0.004830  -0.010108
    23  H   -0.004355   0.032467  -0.055271  -0.007186   0.001364   0.003112
    24  H   -0.010101  -0.012227   0.013369  -0.018243   0.004869   0.003076
    25  C   -0.012958  -0.149029   0.095082   0.072163  -0.028727  -0.007487
    26  H   -0.001845   0.012355   0.012137  -0.029104   0.016656  -0.000652
    27  H    0.003915  -0.002177   0.020669   0.016794  -0.002533   0.001781
    28  H   -0.005271  -0.008498   0.005771  -0.003535   0.001464   0.000721
    29  H   -0.000356   0.003387  -0.003406   0.000060   0.000793  -0.000007
    30  H    0.000536  -0.005792   0.002599   0.003958  -0.002611  -0.000357
    31  H   -0.003762  -0.013169   0.009831  -0.000332  -0.000004   0.000672
    32  B    0.210060   0.191403  -0.050548  -0.044671  -0.053924   0.012820
               7          8          9         10         11         12
     1  C    0.408253  -0.115840  -0.035732  -0.022752   0.021048   0.007813
     2  C   -0.073204   0.542218   0.041807  -0.023758  -0.044153   0.108124
     3  C    0.054808  -0.148239   0.030885  -0.001228  -0.239784  -0.104934
     4  C    0.039025  -0.057730  -0.067649   0.037433  -0.322846  -0.306045
     5  C   -0.054662   0.055025   0.457856  -0.034924  -0.131873   0.069608
     6  C   -0.034304   0.014018  -0.052131   0.368355   0.067874   0.001894
     7  H    0.467877  -0.010719   0.000397  -0.008102   0.000123   0.000059
     8  H   -0.010719   0.520108  -0.000277   0.002033   0.000240   0.004316
     9  H    0.000397  -0.000277   0.499924  -0.009350  -0.029236  -0.002879
    10  H   -0.008102   0.002033  -0.009350   0.466241  -0.004614  -0.000196
    11  N    0.000123   0.000240  -0.029236  -0.004614   7.238554   0.252363
    12  C    0.000059   0.004316  -0.002879  -0.000196   0.252363   5.427240
    13  H   -0.000214  -0.003007   0.002162  -0.000128  -0.079877   0.384026
    14  H    0.000011   0.000353  -0.000075   0.000089  -0.059654   0.395418
    15  H    0.000059   0.000069  -0.001188  -0.000307  -0.072315   0.436123
    16  C   -0.001389   0.000687  -0.003411   0.002279   0.282274  -0.154795
    17  H    0.000190  -0.000125  -0.009175  -0.000434  -0.045852   0.008051
    18  H   -0.000131   0.000011  -0.003203   0.001002  -0.059111  -0.002398
    19  H   -0.000094   0.000044   0.004567   0.000191  -0.078325  -0.001062
    20  C   -0.002582   0.019653  -0.000173  -0.000136  -0.011637   0.008503
    21  C   -0.000327  -0.004076   0.000906  -0.000006   0.032119  -0.028267
    22  C    0.000481  -0.014302   0.001105  -0.000455   0.009890  -0.006337
    23  H   -0.000457  -0.001216  -0.000390  -0.000054   0.002644  -0.000993
    24  H   -0.000166  -0.001240  -0.000014  -0.000049   0.004258   0.002290
    25  C    0.000192  -0.000421   0.000214  -0.000204   0.007200  -0.030344
    26  H    0.000052  -0.003320   0.000470  -0.000149  -0.006528   0.016574
    27  H    0.000195  -0.002797  -0.000468  -0.000046  -0.014021  -0.002056
    28  H   -0.000129  -0.000536  -0.000060   0.000012   0.000969  -0.000940
    29  H    0.000006  -0.000272   0.000029  -0.000005  -0.000341  -0.000474
    30  H    0.000012   0.000311   0.000002   0.000000  -0.000294   0.000088
    31  H   -0.000074  -0.000556  -0.000130   0.000004   0.000094  -0.000108
    32  B   -0.000684  -0.006752  -0.009224  -0.000555   0.039147  -0.009274
              13         14         15         16         17         18
     1  C   -0.024558  -0.001878   0.005842   0.003401   0.013802  -0.004384
     2  C   -0.031361  -0.001705  -0.011989   0.032785  -0.000646  -0.007318
     3  C    0.097734  -0.003842  -0.006599  -0.072899  -0.002326  -0.001091
     4  C    0.034799   0.027534   0.012809  -0.040045   0.005147  -0.014322
     5  C    0.003451   0.001911  -0.009441  -0.096649  -0.016204   0.012998
     6  C    0.001716   0.006098  -0.000071  -0.204995  -0.022601   0.028412
     7  H   -0.000214   0.000011   0.000059  -0.001389   0.000190  -0.000131
     8  H   -0.003007   0.000353   0.000069   0.000687  -0.000125   0.000011
     9  H    0.002162  -0.000075  -0.001188  -0.003411  -0.009175  -0.003203
    10  H   -0.000128   0.000089  -0.000307   0.002279  -0.000434   0.001002
    11  N   -0.079877  -0.059654  -0.072315   0.282274  -0.045852  -0.059111
    12  C    0.384026   0.395418   0.436123  -0.154795   0.008051  -0.002398
    13  H    0.590362  -0.025894  -0.035647   0.004642  -0.001717  -0.007096
    14  H   -0.025894   0.522293  -0.041875  -0.014517  -0.002806  -0.000716
    15  H   -0.035647  -0.041875   0.566876  -0.011105   0.000666   0.021614
    16  C    0.004642  -0.014517  -0.011105   5.397274   0.436846   0.381289
    17  H   -0.001717  -0.002806   0.000666   0.436846   0.523982  -0.047632
    18  H   -0.007096  -0.000716   0.021614   0.381289  -0.047632   0.598586
    19  H    0.006382   0.004156  -0.010295   0.404967  -0.007928  -0.057040
    20  C   -0.004281  -0.001936  -0.000005  -0.001457  -0.000259   0.000189
    21  C    0.025313  -0.000487   0.004243   0.012835   0.004283  -0.003518
    22  C    0.026944  -0.004185   0.000070  -0.002293  -0.000497   0.000236
    23  H    0.000289  -0.000657   0.000100   0.001158  -0.000103   0.000011
    24  H    0.001383  -0.000813   0.000212   0.000192  -0.000116   0.000024
    25  C    0.005671  -0.005734  -0.002378  -0.007621   0.001992  -0.000572
    26  H    0.021427  -0.009737   0.002067   0.003990   0.001658  -0.000763
    27  H    0.011234   0.004125  -0.001534  -0.001586   0.002125  -0.000804
    28  H    0.008009  -0.001121   0.000061   0.000488   0.000014   0.000019
    29  H    0.000604  -0.000136  -0.000029  -0.000363  -0.000008   0.000007
    30  H   -0.001515   0.000157  -0.000001  -0.000145  -0.000112  -0.000029
    31  H    0.002566  -0.000196   0.000077   0.000410   0.000063   0.000047
    32  B   -0.164864   0.005495   0.005259  -0.005156  -0.014653   0.009845
              19         20         21         22         23         24
     1  C   -0.003273  -0.167244  -0.047224  -0.120016  -0.004355  -0.010101
     2  C    0.005219   0.338741  -0.108784  -0.280624   0.032467  -0.012227
     3  C   -0.001160  -0.281975   0.023566   0.376607  -0.055271   0.013369
     4  C    0.031502  -0.174964   0.001633  -0.002371  -0.007186  -0.018243
     5  C    0.016297   0.088430  -0.059632   0.004830   0.001364   0.004869
     6  C   -0.006867   0.039754   0.019040  -0.010108   0.003112   0.003076
     7  H   -0.000094  -0.002582  -0.000327   0.000481  -0.000457  -0.000166
     8  H    0.000044   0.019653  -0.004076  -0.014302  -0.001216  -0.001240
     9  H    0.004567  -0.000173   0.000906   0.001105  -0.000390  -0.000014
    10  H    0.000191  -0.000136  -0.000006  -0.000455  -0.000054  -0.000049
    11  N   -0.078325  -0.011637   0.032119   0.009890   0.002644   0.004258
    12  C   -0.001062   0.008503  -0.028267  -0.006337  -0.000993   0.002290
    13  H    0.006382  -0.004281   0.025313   0.026944   0.000289   0.001383
    14  H    0.004156  -0.001936  -0.000487  -0.004185  -0.000657  -0.000813
    15  H   -0.010295  -0.000005   0.004243   0.000070   0.000100   0.000212
    16  C    0.404967  -0.001457   0.012835  -0.002293   0.001158   0.000192
    17  H   -0.007928  -0.000259   0.004283  -0.000497  -0.000103  -0.000116
    18  H   -0.057040   0.000189  -0.003518   0.000236   0.000011   0.000024
    19  H    0.521921   0.000138  -0.000405  -0.000075   0.000084   0.000010
    20  C    0.000138   5.760912  -0.102178  -0.292940   0.458771   0.387957
    21  C   -0.000405  -0.102178   5.633495  -0.046697   0.014020   0.005767
    22  C   -0.000075  -0.292940  -0.046697   6.438277  -0.028389  -0.004311
    23  H    0.000084   0.458771   0.014020  -0.028389   0.574568   0.007207
    24  H    0.000010   0.387957   0.005767  -0.004311   0.007207   0.505858
    25  C    0.000807  -0.097133  -0.256430  -0.076677  -0.009488   0.013439
    26  H    0.000621   0.032920   0.413775   0.025558   0.004403  -0.001804
    27  H   -0.001107  -0.005889   0.389110   0.017096  -0.004322  -0.003268
    28  H   -0.000020  -0.092899   0.010023   0.552604   0.017462   0.003471
    29  H   -0.000009  -0.048765   0.019699   0.410325  -0.019914  -0.009675
    30  H    0.000155   0.011520  -0.051439  -0.061868  -0.002621   0.001085
    31  H   -0.000162   0.002149  -0.086130  -0.045811   0.018645  -0.000770
    32  B   -0.003603   0.472706   0.323898  -0.390817  -0.183334  -0.092028
              25         26         27         28         29         30
     1  C   -0.012958  -0.001845   0.003915  -0.005271  -0.000356   0.000536
     2  C   -0.149029   0.012355  -0.002177  -0.008498   0.003387  -0.005792
     3  C    0.095082   0.012137   0.020669   0.005771  -0.003406   0.002599
     4  C    0.072163  -0.029104   0.016794  -0.003535   0.000060   0.003958
     5  C   -0.028727   0.016656  -0.002533   0.001464   0.000793  -0.002611
     6  C   -0.007487  -0.000652   0.001781   0.000721  -0.000007  -0.000357
     7  H    0.000192   0.000052   0.000195  -0.000129   0.000006   0.000012
     8  H   -0.000421  -0.003320  -0.002797  -0.000536  -0.000272   0.000311
     9  H    0.000214   0.000470  -0.000468  -0.000060   0.000029   0.000002
    10  H   -0.000204  -0.000149  -0.000046   0.000012  -0.000005   0.000000
    11  N    0.007200  -0.006528  -0.014021   0.000969  -0.000341  -0.000294
    12  C   -0.030344   0.016574  -0.002056  -0.000940  -0.000474   0.000088
    13  H    0.005671   0.021427   0.011234   0.008009   0.000604  -0.001515
    14  H   -0.005734  -0.009737   0.004125  -0.001121  -0.000136   0.000157
    15  H   -0.002378   0.002067  -0.001534   0.000061  -0.000029  -0.000001
    16  C   -0.007621   0.003990  -0.001586   0.000488  -0.000363  -0.000145
    17  H    0.001992   0.001658   0.002125   0.000014  -0.000008  -0.000112
    18  H   -0.000572  -0.000763  -0.000804   0.000019   0.000007  -0.000029
    19  H    0.000807   0.000621  -0.001107  -0.000020  -0.000009   0.000155
    20  C   -0.097133   0.032920  -0.005889  -0.092899  -0.048765   0.011520
    21  C   -0.256430   0.413775   0.389110   0.010023   0.019699  -0.051439
    22  C   -0.076677   0.025558   0.017096   0.552604   0.410325  -0.061868
    23  H   -0.009488   0.004403  -0.004322   0.017462  -0.019914  -0.002621
    24  H    0.013439  -0.001804  -0.003268   0.003471  -0.009675   0.001085
    25  C    6.503704  -0.021286  -0.016944  -0.065276  -0.062044   0.413282
    26  H   -0.021286   0.626256   0.011300   0.020535  -0.003722  -0.026774
    27  H   -0.016944   0.011300   0.506328   0.001467   0.001383  -0.010367
    28  H   -0.065276   0.020535   0.001467   0.560082  -0.020691  -0.009520
    29  H   -0.062044  -0.003722   0.001383  -0.020691   0.519308  -0.000485
    30  H    0.413282  -0.026774  -0.010367  -0.009520  -0.000485   0.525534
    31  H    0.513319   0.017254   0.007209   0.017970  -0.009524  -0.020664
    32  B   -0.142908  -0.274248  -0.130925  -0.150271   0.050784   0.055425
              31         32
     1  C   -0.003762   0.210060
     2  C   -0.013169   0.191403
     3  C    0.009831  -0.050548
     4  C   -0.000332  -0.044671
     5  C   -0.000004  -0.053924
     6  C    0.000672   0.012820
     7  H   -0.000074  -0.000684
     8  H   -0.000556  -0.006752
     9  H   -0.000130  -0.009224
    10  H    0.000004  -0.000555
    11  N    0.000094   0.039147
    12  C   -0.000108  -0.009274
    13  H    0.002566  -0.164864
    14  H   -0.000196   0.005495
    15  H    0.000077   0.005259
    16  C    0.000410  -0.005156
    17  H    0.000063  -0.014653
    18  H    0.000047   0.009845
    19  H   -0.000162  -0.003603
    20  C    0.002149   0.472706
    21  C   -0.086130   0.323898
    22  C   -0.045811  -0.390817
    23  H    0.018645  -0.183334
    24  H   -0.000770  -0.092028
    25  C    0.513319  -0.142908
    26  H    0.017254  -0.274248
    27  H    0.007209  -0.130925
    28  H    0.017970  -0.150271
    29  H   -0.009524   0.050784
    30  H   -0.020664   0.055425
    31  H    0.550328  -0.119263
    32  B   -0.119263   5.324011
 Mulliken charges:
               1
     1  C   -0.668304
     2  C   -0.080299
     3  C    0.191837
     4  C   -0.142730
     5  C   -0.132047
     6  C   -0.413148
     7  H    0.215498
     8  H    0.212337
     9  H    0.184440
    10  H    0.229814
    11  N    0.241664
    12  C   -0.471388
    13  H    0.151444
    14  H    0.210325
    15  H    0.148632
    16  C   -0.347089
    17  H    0.174373
    18  H    0.155840
    19  H    0.174366
    20  C   -0.335890
    21  C   -0.138124
    22  C   -0.475252
    23  H    0.182445
    24  H    0.200358
    25  C   -0.633403
    26  H    0.139922
    27  H    0.206115
    28  H    0.157629
    29  H    0.173841
    30  H    0.179930
    31  H    0.160015
    32  B    0.146848
 Sum of Mulliken charges =  -0.00000
 Mulliken charges with hydrogens summed into heavy atoms:
               1
     1  C   -0.452806
     2  C    0.132038
     3  C    0.191837
     4  C   -0.142730
     5  C    0.052394
     6  C   -0.183333
    11  N    0.241664
    12  C    0.039014
    16  C    0.157490
    20  C    0.046912
    21  C    0.207912
    22  C   -0.143782
    25  C   -0.293457
    32  B    0.146848
 Electronic spatial extent (au):  <R**2>=           6639.6806
 Charge=             -0.0000 electrons
 Dipole moment (field-independent basis, Debye):
    X=             -0.6523    Y=              1.6200    Z=             -0.1372  Tot=              1.7518
 Quadrupole moment (field-independent basis, Debye-Ang):
   XX=            -86.6502   YY=            -71.7774   ZZ=            -88.1542
   XY=              2.0278   XZ=              1.4356   YZ=             -3.1459
 Traceless Quadrupole moment (field-independent basis, Debye-Ang):
   XX=             -4.4562   YY=             10.4165   ZZ=             -5.9603
   XY=              2.0278   XZ=              1.4356   YZ=             -3.1459
 Octapole moment (field-independent basis, Debye-Ang**2):
  XXX=           -506.5951  YYY=           -553.5792  ZZZ=            -19.7492  XYY=           -138.5922
  XXY=           -200.2554  XXZ=              1.7187  XZZ=           -161.2354  YZZ=           -215.9265
  YYZ=            -21.4762  XYZ=              7.7360
 Hexadecapole moment (field-independent basis, Debye-Ang**3):
 XXXX=          -4346.2440 YYYY=          -4144.4390 ZZZZ=           -480.4864 XXXY=           -923.0621
 XXXZ=             48.4809 YYYX=           -801.4141 YYYZ=             65.1973 ZZZX=             37.9460
 ZZZY=            137.0096 XXYY=          -1388.9108 XXZZ=           -801.5591 YYZZ=           -838.0307
 XXYZ=             74.3647 YYXZ=             27.3469 ZZXY=           -306.4809
 N-N= 8.651992513116D+02 E-N=-3.000846225305D+03  KE= 5.451269253015D+02
 Breneman (CHELPG) radii used.
 Generate Potential Derived Charges using the Breneman model, NDens= 1.
 Grid spacing= 0.300 Box extension= 2.800
 NStep X,Y,Z=   49     40     35   Total possible points=       68600
 Number of Points to Fit=   18034

 **********************************************************************

            Electrostatic Properties Using The SCF Density.

 **********************************************************************

       Atomic Center    1 is at  -0.821912  1.080624  0.969861
       Atomic Center    2 is at   0.566283  1.049937  0.989911
       Atomic Center    3 is at   1.354731  2.069917  0.435594
       Atomic Center    4 is at   0.685325  3.206166 -0.089263
       Atomic Center    5 is at  -0.714169  3.225733 -0.127576
       Atomic Center    6 is at  -1.455775  2.169693  0.387297
       Atomic Center    7 is at  -1.398543  0.263992  1.388569
       Atomic Center    8 is at   1.062580  0.183505  1.415413
       Atomic Center    9 is at  -1.237549  4.078998 -0.539901
       Atomic Center   10 is at  -2.539271  2.214623  0.349819
       Atomic Center   11 is at   1.436572  4.292974 -0.569592
       Atomic Center   12 is at   2.284642  4.976781  0.396748
       Atomic Center   13 is at   2.677397  4.277242  1.131912
       Atomic Center   14 is at   3.127791  5.451958 -0.112795
       Atomic Center   15 is at   1.722623  5.755996  0.936549
       Atomic Center   16 is at   0.778346  5.231425 -1.455591
       Atomic Center   17 is at   0.247370  4.698900 -2.246151
       Atomic Center   18 is at   0.068631  5.896480 -0.935682
       Atomic Center   19 is at   1.540005  5.860244 -1.922896
       Atomic Center   20 is at   3.661643  0.615473  1.004305
       Atomic Center   21 is at   3.870767  2.358334 -0.827021
       Atomic Center   22 is at   5.123663  0.790095  0.550375
       Atomic Center   23 is at   3.278202 -0.344522  0.622363
       Atomic Center   24 is at   3.527024  0.580030  2.089726
       Atomic Center   25 is at   5.023658  1.337245 -0.880753
       Atomic Center   26 is at   4.254135  3.303269 -0.413158
       Atomic Center   27 is at   3.432015  2.618112 -1.793715
       Atomic Center   28 is at   5.618566  1.533878  1.186897
       Atomic Center   29 is at   5.713474 -0.128805  0.612667
       Atomic Center   30 is at   5.966684  1.761482 -1.237565
       Atomic Center   31 is at   4.760305  0.519498 -1.562793
       Atomic Center   32 is at   2.869134  1.756724  0.238169
   18034 points will be used for fitting atomic charges
 Fitting point charges to electrostatic potential
 Charges from ESP fit, RMS=   0.00346 RRMS=   0.38426:
 ESP charges:
               1
     1  C   -0.179053
     2  C    0.015404
     3  C   -0.387967
     4  C    0.416451
     5  C   -0.251417
     6  C   -0.071200
     7  H    0.105923
     8  H    0.058264
     9  H    0.125477
    10  H    0.106991
    11  N   -0.318284
    12  C    0.010953
    13  H    0.020786
    14  H    0.060155
    15  H    0.021301
    16  C   -0.106503
    17  H    0.058401
    18  H    0.058037
    19  H    0.089962
    20  C   -0.056121
    21  C   -0.201870
    22  C   -0.061267
    23  H    0.018401
    24  H   -0.019657
    25  C    0.048752
    26  H    0.060704
    27  H   -0.003948
    28  H    0.010157
    29  H   -0.000785
    30  H   -0.016879
    31  H   -0.006121
    32  B    0.394953
 Sum of ESP charges =   0.00000
 ESP charges with hydrogens summed into heavy atoms:
               1
     1  C   -0.073130
     2  C    0.073668
     3  C   -0.387967
     4  C    0.416451
     5  C   -0.125940
     6  C    0.035791
    11  N   -0.318284
    12  C    0.113195
    16  C    0.099897
    20  C   -0.057377
    21  C   -0.145114
    22  C   -0.051894
    25  C    0.025752
    32  B    0.394953
 Charge=   0.00000 Dipole=    -0.7503     1.6631    -0.0940 Tot=     1.8269
 -----------------------------------------------------------------

              Electrostatic Properties (Atomic Units)

 -----------------------------------------------------------------
    Center     Electric         -------- Electric Field --------
               Potential          X             Y             Z
 -----------------------------------------------------------------
    1 Atom    -14.785803
    2 Atom    -14.778286
    3 Atom    -14.799024
    4 Atom    -14.735825
    5 Atom    -14.781290
    6 Atom    -14.773267
    7 Atom     -1.111867
    8 Atom     -1.115327
    9 Atom     -1.104131
   10 Atom     -1.105505
   11 Atom    -18.381146
   12 Atom    -14.746343
   13 Atom     -1.108268
   14 Atom     -1.112066
   15 Atom     -1.115724
   16 Atom    -14.747026
   17 Atom     -1.109319
   18 Atom     -1.113430
   19 Atom     -1.109083
   20 Atom    -14.809727
   21 Atom    -14.813714
   22 Atom    -14.790241
   23 Atom     -1.120640
   24 Atom     -1.131248
   25 Atom    -14.791827
   26 Atom     -1.122523
   27 Atom     -1.139007
   28 Atom     -1.142205
   29 Atom     -1.144028
   30 Atom     -1.144831
   31 Atom     -1.144354
   32 Atom    -11.484423
 -----------------------------------------------------------------
 Unable to Open any file for archive entry.
 1\1\GINC-IRENE4899\SP\RwB97XD\GenECP\C12H18B1N1\PENASFRA\10-Apr-2024\0
 \\# wb97xd/genecp scrf=(solvent=toluene,pcm) nosymm pop=(chelpg) scfcy
 c=300\\cyclo5_dimethylaniline_chelpg\\0,1\C,0,-0.821912,1.080624,0.969
 861\C,0,0.566283,1.049937,0.989911\C,0,1.354731,2.069917,0.435594\C,0,
 0.685325,3.206166,-0.089263\C,0,-0.714169,3.225733,-0.127576\C,0,-1.45
 5775,2.169693,0.387297\H,0,-1.398543,0.263992,1.388569\H,0,1.06258,0.1
 83505,1.415413\H,0,-1.237549,4.078998,-0.539901\H,0,-2.539271,2.214623
 ,0.349819\N,0,1.436572,4.292974,-0.569592\C,0,2.284642,4.976781,0.3967
 48\H,0,2.677397,4.277242,1.131912\H,0,3.127791,5.451958,-0.112795\H,0,
 1.722623,5.755996,0.936549\C,0,0.778346,5.231425,-1.455591\H,0,0.24737
 ,4.6989,-2.246151\H,0,0.068631,5.89648,-0.935682\H,0,1.540005,5.860244
 ,-1.922896\C,0,3.661643,0.615473,1.004305\C,0,3.870767,2.358334,-0.827
 021\C,0,5.123663,0.790095,0.550375\H,0,3.278202,-0.344522,0.622363\H,0
 ,3.527024,0.58003,2.089726\C,0,5.023658,1.337245,-0.880753\H,0,4.25413
 5,3.303269,-0.413158\H,0,3.432015,2.618112,-1.793715\H,0,5.618566,1.53
 3878,1.186897\H,0,5.713474,-0.128805,0.612667\H,0,5.966684,1.761482,-1
 .237565\H,0,4.760305,0.519498,-1.562793\B,0,2.869134,1.756724,0.238169
 \\Version=AS64L-G16RevC.02\HF=-547.6878514\RMSD=6.922e-09\Dipole=-0.25
 66262,0.6373628,-0.053998\Quadrupole=-3.3131077,7.7444461,-4.4313383,1
 .5075924,1.0673026,-2.3388691\PG=C01 [X(C12H18B1N1)]\\@
 The archive entry for this job was punched.


 WE LEARN WISDOM FROM FAILURE MUCH MORE THAN FROM SUCCESS.
 WE DISCOVER WHAT WILL DO BY FINDING OUT WHAT WILL NOT DO...
 AND HE WHO NEVER MADE A MISTAKE NEVER MADE A DISCOVERY
 Job cpu time:       0 days  1 hours  6 minutes 11.8 seconds.
 Elapsed time:       0 days  0 hours  0 minutes 41.1 seconds.
 File lengths (MBytes):  RWF=    182 Int=      0 D2E=      0 Chk=     13 Scr=      1
 Normal termination of Gaussian 16 at Wed Apr 10 14:26:08 2024.
