 Entering Gaussian System, Link 0=/ccc/products/gaussian-16-C.02/system/default/g16/g16
 Input=ethy_metriazole_chelpg.gjf
 Output=ethy_metriazole_chelpg.log
 Initial command:
 /ccc/products/gaussian-16-C.02/system/default/g16/l1.exe "/ccc/scratch/cont003/gen7343/penasfra/flp/b-n_flp/ethy_metriazole/Reactant/Gau-142295.inp" -scrdir="/ccc/scratch/cont003/gen7343/penasfra/flp/b-n_flp/ethy_metriazole/Reactant/"
 Entering Link 1 = /ccc/products/gaussian-16-C.02/system/default/g16/l1.exe PID=    142344.
  
 Copyright (c) 1988-2021, Gaussian, Inc.  All Rights Reserved.
  
 This is part of the Gaussian(R) 16 program.  It is based on
 the Gaussian(R) 09 system (copyright 2009, Gaussian, Inc.),
 the Gaussian(R) 03 system (copyright 2003, Gaussian, Inc.),
 the Gaussian(R) 98 system (copyright 1998, Gaussian, Inc.),
 the Gaussian(R) 94 system (copyright 1995, Gaussian, Inc.),
 the Gaussian 92(TM) system (copyright 1992, Gaussian, Inc.),
 the Gaussian 90(TM) system (copyright 1990, Gaussian, Inc.),
 the Gaussian 88(TM) system (copyright 1988, Gaussian, Inc.),
 the Gaussian 86(TM) system (copyright 1986, Carnegie Mellon
 University), and the Gaussian 82(TM) system (copyright 1983,
 Carnegie Mellon University). Gaussian is a federally registered
 trademark of Gaussian, Inc.
  
 This software contains proprietary and confidential information,
 including trade secrets, belonging to Gaussian, Inc.
  
 This software is provided under written license and may be
 used, copied, transmitted, or stored only in accord with that
 written license.
  
 The following legend is applicable only to US Government
 contracts under FAR:
  
                    RESTRICTED RIGHTS LEGEND
  
 Use, reproduction and disclosure by the US Government is
 subject to restrictions as set forth in subparagraphs (a)
 and (c) of the Commercial Computer Software - Restricted
 Rights clause in FAR 52.227-19.
  
 Gaussian, Inc.
 340 Quinnipiac St., Bldg. 40, Wallingford CT 06492
  
  
 ---------------------------------------------------------------
 Warning -- This program may not be used in any manner that
 competes with the business of Gaussian, Inc. or will provide
 assistance to any competitor of Gaussian, Inc.  The licensee
 of this program is prohibited from giving any competitor of
 Gaussian, Inc. access to this program.  By using this program,
 the user acknowledges that Gaussian, Inc. is engaged in the
 business of creating and licensing software in the field of
 computational chemistry and represents and warrants to the
 licensee that it is not a competitor of Gaussian, Inc. and that
 it will not use this program in any manner prohibited above.
 ---------------------------------------------------------------
  

 Cite this work as:
 Gaussian 16, Revision C.02,
 M. J. Frisch, G. W. Trucks, H. B. Schlegel, G. E. Scuseria, 
 M. A. Robb, J. R. Cheeseman, G. Scalmani, V. Barone, 
 G. A. Petersson, H. Nakatsuji, X. Li, M. Caricato, A. V. Marenich, 
 J. Bloino, B. G. Janesko, R. Gomperts, B. Mennucci, H. P. Hratchian, 
 J. V. Ortiz, A. F. Izmaylov, J. L. Sonnenberg, D. Williams-Young, 
 F. Ding, F. Lipparini, F. Egidi, J. Goings, B. Peng, A. Petrone, 
 T. Henderson, D. Ranasinghe, V. G. Zakrzewski, J. Gao, N. Rega, 
 G. Zheng, W. Liang, M. Hada, M. Ehara, K. Toyota, R. Fukuda, 
 J. Hasegawa, M. Ishida, T. Nakajima, Y. Honda, O. Kitao, H. Nakai, 
 T. Vreven, K. Throssell, J. A. Montgomery, Jr., J. E. Peralta, 
 F. Ogliaro, M. J. Bearpark, J. J. Heyd, E. N. Brothers, K. N. Kudin, 
 V. N. Staroverov, T. A. Keith, R. Kobayashi, J. Normand, 
 K. Raghavachari, A. P. Rendell, J. C. Burant, S. S. Iyengar, 
 J. Tomasi, M. Cossi, J. M. Millam, M. Klene, C. Adamo, R. Cammi, 
 J. W. Ochterski, R. L. Martin, K. Morokuma, O. Farkas, 
 J. B. Foresman, and D. J. Fox, Gaussian, Inc., Wallingford CT, 2019.
 
 ******************************************
 Gaussian 16:  AS64L-G16RevC.02  7-Dec-2021
                 9-Apr-2024 
 ******************************************
 %nprocshared=128
 Will use up to  128 processors via shared memory.
 %mem=30GB
 %chk=ethy_metriazole_chelpg.chk
 ----------------------------------------------------------------------
 # wb97xd/genecp scrf=(solvent=toluene,pcm) nosymm pop=(chelpg) scfcyc=
 300
 ----------------------------------------------------------------------
 1/38=1,172=1/1;
 2/12=2,15=1,17=6,18=5,40=1/2;
 3/5=7,11=2,16=1,17=8,25=1,30=1,70=2201,72=13,74=-58/1,2,3;
 4//1;
 5/5=2,7=300,38=5,53=13/2;
 6/7=2,8=2,9=2,10=2,15=8,20=3,28=1/1,2;
 99/5=1,9=1/99;
 ----------------------
 ethy_metriazole_chelpg
 ----------------------
 Symbolic Z-matrix:
 Charge =  0 Multiplicity = 1
 C                     2.60875   1.61309   1.16961 
 H                     2.6525    2.12367   2.11779 
 C                     3.15438   0.41381   0.74235 
 N                     1.94198   2.09412   0.11629 
 N                     2.05444   1.25294  -0.93642 
 N                     2.77143   0.25336  -0.56912 
 B                     4.0155   -0.58306   1.52661 
 C                     1.21608   3.34295  -0.02226 
 H                     1.88833   4.1351   -0.35375 
 H                     0.42946   3.19807  -0.75985 
 H                     0.77572   3.60763   0.93768 
 C                     4.52936  -1.86419   0.88606 
 C                     4.94215  -2.88216   0.3869 
 H                     5.30225  -3.77907  -0.06241 
 C                     4.36618  -0.28129   2.98385 
 C                     4.63788  -0.0343    4.13363 
 H                     4.8844    0.17265   5.14987 
 
                          Input orientation:                          
 ---------------------------------------------------------------------
 Center     Atomic      Atomic             Coordinates (Angstroms)
 Number     Number       Type             X           Y           Z
 ---------------------------------------------------------------------
      1          6           0        2.608753    1.613085    1.169613
      2          1           0        2.652504    2.123672    2.117787
      3          6           0        3.154378    0.413812    0.742346
      4          7           0        1.941979    2.094116    0.116294
      5          7           0        2.054437    1.252941   -0.936423
      6          7           0        2.771425    0.253363   -0.569120
      7          5           0        4.015504   -0.583062    1.526610
      8          6           0        1.216083    3.342949   -0.022263
      9          1           0        1.888326    4.135102   -0.353747
     10          1           0        0.429458    3.198070   -0.759850
     11          1           0        0.775721    3.607629    0.937678
     12          6           0        4.529364   -1.864187    0.886063
     13          6           0        4.942152   -2.882156    0.386904
     14          1           0        5.302250   -3.779073   -0.062409
     15          6           0        4.366180   -0.281289    2.983854
     16          6           0        4.637883   -0.034301    4.133633
     17          1           0        4.884404    0.172646    5.149871
 ---------------------------------------------------------------------
                    Distance matrix (angstroms):
                    1          2          3          4          5
     1  C    0.000000
     2  H    1.077797   0.000000
     3  C    1.385106   2.251075   0.000000
     4  N    1.336211   2.124075   2.164549   0.000000
     5  N    2.207342   3.231726   2.175379   1.352196   0.000000
     6  N    2.213255   3.275922   1.375623   2.132169   1.283799
     7  B    2.632386   3.087664   1.533090   3.668212   3.644616
     8  C    2.520422   2.851273   3.594643   1.451105   2.430362
     9  H    3.033185   3.276934   4.080724   2.095099   2.945158
    10  H    3.314262   3.791709   4.175389   2.067381   2.540721
    11  H    2.718824   2.667789   3.987058   2.079796   3.269851
    12  C    3.982533   4.576327   2.664680   4.791166   4.377580
    13  C    5.124898   5.770334   3.766415   5.817005   5.214319
    14  H    6.152087   6.827650   4.779254   6.768878   6.052549
    15  C    3.157321   3.077433   2.641209   4.443220   4.802769
    16  C    3.951792   3.558400   3.728595   5.285553   5.834094
    17  H    4.805820   4.240450   4.741037   6.138958   6.798435
                    6          7          8          9         10
     6  N    0.000000
     7  B    2.576708   0.000000
     8  C    3.501954   5.064517   0.000000
     9  H    3.986746   5.506514   1.090550   0.000000
    10  H    3.767292   5.690746   1.088027   1.780799   0.000000
    11  H    4.183823   5.329627   1.088789   1.784348   1.780235
    12  C    3.113186   1.521721   6.238361   6.671108   6.718981
    13  C    3.931605   2.728267   7.266563   7.688714   7.658237
    14  H    4.787731   3.794098   8.211064   8.624032   8.538797
    15  C    3.930995   1.528921   5.665241   6.064969   6.451282
    16  C    5.067771   2.735884   6.354998   6.714206   7.218396
    17  H    6.097381   3.801855   7.089314   7.413997   7.995282
                   11         12         13         14         15
    11  H    0.000000
    12  C    6.635757   0.000000
    13  C    7.731740   1.206571   0.000000
    14  H    8.720837   2.272386   1.065839   0.000000
    15  C    5.674673   2.633044   3.720269   4.731854   0.000000
    16  C    6.196295   3.729205   4.716019   5.663168   1.206987
    17  H    6.813439   4.738650   5.658711   6.554277   2.272937
                   16         17
    16  C    0.000000
    17  H    1.065992   0.000000
 Symmetry turned off by external request.
 Stoichiometry    C7H6BN3
 Framework group  C1[X(C7H6BN3)]
 Deg. of freedom    45
 Full point group                 C1      NOp   1
 Rotational constants (GHZ):           1.9248907           0.7172071           0.5242721
 General basis read from cards:  (5D, 7F)
 ======================================================================================================
                                       Pseudopotential Parameters
 ======================================================================================================
  Center     Atomic      Valence      Angular      Power
  Number     Number     Electrons     Momentum     of R      Exponent        Coefficient   SO-Coeffient
 ======================================================================================================
    1          6
                                   No pseudopotential on this center.
    2          1
                                   No pseudopotential on this center.
    3          6
                                   No pseudopotential on this center.
    4          7
                                   No pseudopotential on this center.
    5          7
                                   No pseudopotential on this center.
    6          7
                                   No pseudopotential on this center.
    7          5
                                   No pseudopotential on this center.
    8          6
                                   No pseudopotential on this center.
    9          1
                                   No pseudopotential on this center.
   10          1
                                   No pseudopotential on this center.
   11          1
                                   No pseudopotential on this center.
   12          6
                                   No pseudopotential on this center.
   13          6
                                   No pseudopotential on this center.
   14          1
                                   No pseudopotential on this center.
   15          6
                                   No pseudopotential on this center.
   16          6
                                   No pseudopotential on this center.
   17          1
                                   No pseudopotential on this center.
 ======================================================================================================
   284 basis functions,   450 primitive gaussians,   295 cartesian basis functions
    37 alpha electrons       37 beta electrons
       nuclear repulsion energy       487.4653745378 Hartrees.
 NAtoms=   17 NActive=   17 NUniq=   17 SFac= 1.00D+00 NAtFMM=   60 NAOKFM=F Big=F
 Integral buffers will be    131072 words long.
 Raffenetti 2 integral format.
 Two-electron integral symmetry is turned off.
 Nuclear repulsion after empirical dispersion term =      487.4578316528 Hartrees.
 ------------------------------------------------------------------------------
 Polarizable Continuum Model (PCM)
 =================================
 Model                : PCM.
 Atomic radii         : UFF (Universal Force Field).
 Polarization charges : Total charges.
 Charge compensation  : None.
 Solution method      : On-the-fly selection.
 Cavity type          : Scaled VdW (van der Waals Surface) (Alpha=1.100).
 Cavity algorithm     : GePol (No added spheres)
                        Default sphere list used, NSphG=   17.
                        Lebedev-Laikov grids with approx.  5.0 points / Ang**2.
                        Smoothing algorithm: York/Karplus (Gamma=1.0000).
                        Polarization charges: spherical gaussians, with
                                              point-specific exponents (IZeta= 3).
                        Self-potential: point-specific (ISelfS= 7).
                        Self-field    : sphere-specific E.n sum rule (ISelfD= 2).
 Solvent              : Toluene, Eps=   2.374100 Eps(inf)=   2.238315
 ------------------------------------------------------------------------------
 Spheres list:
 ISph  on   Nord     Re0    Alpha      Xe            Ye            Ze
    1   C      1    1.9255  1.100      2.608753      1.613085      1.169613
    2   H      2    1.4430  1.100      2.652504      2.123672      2.117787
    3   C      3    1.9255  1.100      3.154378      0.413812      0.742346
    4   N      4    1.8300  1.100      1.941979      2.094116      0.116294
    5   N      5    1.8300  1.100      2.054437      1.252941     -0.936423
    6   N      6    1.8300  1.100      2.771425      0.253363     -0.569120
    7   B      7    2.0415  1.100      4.015504     -0.583062      1.526610
    8   C      8    1.9255  1.100      1.216083      3.342949     -0.022263
    9   H      9    1.4430  1.100      1.888326      4.135102     -0.353747
   10   H     10    1.4430  1.100      0.429458      3.198070     -0.759850
   11   H     11    1.4430  1.100      0.775721      3.607629      0.937678
   12   C     12    1.9255  1.100      4.529364     -1.864187      0.886063
   13   C     13    1.9255  1.100      4.942152     -2.882156      0.386904
   14   H     14    1.4430  1.100      5.302250     -3.779073     -0.062409
   15   C     15    1.9255  1.100      4.366180     -0.281289      2.983854
   16   C     16    1.9255  1.100      4.637883     -0.034301      4.133633
   17   H     17    1.4430  1.100      4.884404      0.172646      5.149871
 ------------------------------------------------------------------------------
 One-electron integrals computed using PRISM.
   1 Symmetry operations used in ECPInt.
 ECPInt:  NShTT=    4656 NPrTT=   17421 LenC2=    4376 LenP2D=   11735.
 LDataN:  DoStor=T MaxTD1= 4 Len=   56
 NBasis=   284 RedAO= T EigKep=  1.27D-06  NBF=   284
 NBsUse=   284 1.00D-06 EigRej= -1.00D+00 NBFU=   284
 ExpMin= 3.15D-02 ExpMax= 6.29D+03 ExpMxC= 9.49D+02 IAcc=3 IRadAn=         5 AccDes= 0.00D+00
 Harris functional with IExCor= 4639 and IRadAn=       5 diagonalized for initial guess.
 HarFok:  IExCor= 4639 AccDes= 0.00D+00 IRadAn=         5 IDoV= 1 UseB2=F ITyADJ=14
 ICtDFT=  3500011 ScaDFX=  1.000000  1.000000  1.000000  1.000000
 FoFCou: FMM=F IPFlag=           0 FMFlag=      100000 FMFlg1=           0
         NFxFlg=           0 DoJE=T BraDBF=F KetDBF=T FulRan=T
         wScrn=  0.000000 ICntrl=       500 IOpCl=  0 I1Cent=   200000004 NGrid=           0
         NMat0=    1 NMatS0=      1 NMatT0=    0 NMatD0=    1 NMtDS0=    0 NMtDT0=    0
 Symmetry not used in FoFCou.
 Requested convergence on RMS density matrix=1.00D-08 within 300 cycles.
 Requested convergence on MAX density matrix=1.00D-06.
 Requested convergence on             energy=1.00D-06.
 No special actions if energy rises.
 Inv3:  Mode=1 IEnd=     8346672.
 Iteration    1 A*A^-1 deviation from unit magnitude is 2.89D-15 for   1661.
 Iteration    1 A*A^-1 deviation from orthogonality  is 2.21D-15 for   1659   1017.
 Iteration    1 A^-1*A deviation from unit magnitude is 2.89D-15 for   1650.
 Iteration    1 A^-1*A deviation from orthogonality  is 1.70D-15 for   1027    832.
 Error on total polarization charges =  0.00910
 SCF Done:  E(RwB97XD) =  -459.273630882     A.U. after   16 cycles
            NFock= 16  Conv=0.81D-08     -V/T= 2.0038

 **********************************************************************

            Population analysis using the SCF Density.

 **********************************************************************

 Alpha  occ. eigenvalues --  -14.54212 -14.50341 -14.46835 -10.34853 -10.34292
 Alpha  occ. eigenvalues --  -10.30566 -10.30214 -10.29645 -10.28456 -10.27798
 Alpha  occ. eigenvalues --   -6.88783  -1.22376  -1.03879  -0.92192  -0.86696
 Alpha  occ. eigenvalues --   -0.85528  -0.84820  -0.74895  -0.70513  -0.68629
 Alpha  occ. eigenvalues --   -0.64057  -0.63564  -0.60266  -0.60146  -0.55748
 Alpha  occ. eigenvalues --   -0.52961  -0.51986  -0.51890  -0.50178  -0.43416
 Alpha  occ. eigenvalues --   -0.41694  -0.39049  -0.38008  -0.37446  -0.36912
 Alpha  occ. eigenvalues --   -0.36399  -0.35160
 Alpha virt. eigenvalues --   -0.03115   0.03650   0.04596   0.04688   0.05198
 Alpha virt. eigenvalues --    0.06560   0.07067   0.07294   0.07575   0.08438
 Alpha virt. eigenvalues --    0.08941   0.09355   0.09862   0.10276   0.10791
 Alpha virt. eigenvalues --    0.11041   0.11899   0.13946   0.14482   0.14873
 Alpha virt. eigenvalues --    0.15501   0.15919   0.16013   0.16510   0.16666
 Alpha virt. eigenvalues --    0.16994   0.17334   0.17598   0.18565   0.19258
 Alpha virt. eigenvalues --    0.20091   0.20430   0.20770   0.20849   0.21515
 Alpha virt. eigenvalues --    0.22203   0.22370   0.23176   0.23914   0.24254
 Alpha virt. eigenvalues --    0.24713   0.25115   0.25979   0.26439   0.27205
 Alpha virt. eigenvalues --    0.28051   0.28309   0.29230   0.29572   0.30207
 Alpha virt. eigenvalues --    0.30732   0.31702   0.32349   0.32668   0.33862
 Alpha virt. eigenvalues --    0.33985   0.34420   0.35976   0.36362   0.37167
 Alpha virt. eigenvalues --    0.38499   0.39557   0.40572   0.41487   0.41837
 Alpha virt. eigenvalues --    0.43557   0.44003   0.47235   0.48159   0.50584
 Alpha virt. eigenvalues --    0.51809   0.52922   0.54803   0.55785   0.56607
 Alpha virt. eigenvalues --    0.57378   0.58517   0.61087   0.62251   0.63045
 Alpha virt. eigenvalues --    0.63246   0.63950   0.66045   0.67114   0.69130
 Alpha virt. eigenvalues --    0.70263   0.70998   0.71207   0.72651   0.74408
 Alpha virt. eigenvalues --    0.75267   0.75359   0.77536   0.77963   0.78460
 Alpha virt. eigenvalues --    0.82505   0.83495   0.84651   0.85991   0.88654
 Alpha virt. eigenvalues --    0.90101   0.90854   0.92335   0.92598   0.93849
 Alpha virt. eigenvalues --    0.94291   0.94425   0.94937   0.96497   0.98157
 Alpha virt. eigenvalues --    0.99124   1.00037   1.03620   1.04919   1.06966
 Alpha virt. eigenvalues --    1.08939   1.11385   1.12436   1.13267   1.19313
 Alpha virt. eigenvalues --    1.21406   1.22225   1.23022   1.25553   1.26243
 Alpha virt. eigenvalues --    1.26814   1.27353   1.29998   1.33438   1.33870
 Alpha virt. eigenvalues --    1.35553   1.36250   1.36878   1.39828   1.41083
 Alpha virt. eigenvalues --    1.43683   1.44983   1.47048   1.50739   1.53517
 Alpha virt. eigenvalues --    1.54931   1.55963   1.61127   1.61508   1.63855
 Alpha virt. eigenvalues --    1.64939   1.65546   1.66016   1.67189   1.70263
 Alpha virt. eigenvalues --    1.70934   1.73295   1.75008   1.79124   1.80177
 Alpha virt. eigenvalues --    1.80574   1.84652   1.86276   1.88096   1.88757
 Alpha virt. eigenvalues --    1.96618   1.98151   1.99990   2.02035   2.03046
 Alpha virt. eigenvalues --    2.06365   2.07176   2.13831   2.14521   2.18255
 Alpha virt. eigenvalues --    2.20537   2.23645   2.25322   2.36656   2.38508
 Alpha virt. eigenvalues --    2.40297   2.46834   2.51133   2.52110   2.54786
 Alpha virt. eigenvalues --    2.56695   2.56763   2.59865   2.61643   2.64134
 Alpha virt. eigenvalues --    2.64998   2.66551   2.69087   2.73521   2.75204
 Alpha virt. eigenvalues --    2.76470   2.76900   2.77092   2.80558   2.82475
 Alpha virt. eigenvalues --    2.83742   2.85258   2.87153   2.87930   2.89460
 Alpha virt. eigenvalues --    2.91061   2.92430   2.98589   3.04466   3.05691
 Alpha virt. eigenvalues --    3.06425   3.08166   3.10122   3.10567   3.13824
 Alpha virt. eigenvalues --    3.15011   3.19459   3.25923   3.29957   3.33455
 Alpha virt. eigenvalues --    3.40554   3.50440   3.53030   3.59263   3.65972
 Alpha virt. eigenvalues --    3.72309   3.78861   3.79791   3.86780   3.88203
 Alpha virt. eigenvalues --    3.91941   4.03110   4.03967   4.12216   4.15723
 Alpha virt. eigenvalues --    4.17997   4.31479   4.71666   4.93966   5.09665
 Alpha virt. eigenvalues --    5.74403  14.88221  23.64745  23.77093  23.93975
 Alpha virt. eigenvalues --   24.05048  24.23344  25.16078  25.19466  35.55067
 Alpha virt. eigenvalues --   35.63019  35.78115
          Condensed to atoms (all electrons):
               1          2          3          4          5          6
     1  C    9.392889   0.210955  -3.070500   0.433108  -0.714561   0.368935
     2  H    0.210955   0.425099   0.178835  -0.079499   0.056489  -0.030994
     3  C   -3.070500   0.178835   9.164189  -0.635405   0.804873  -0.066807
     4  N    0.433108  -0.079499  -0.635405   7.122244  -0.349861   0.289151
     5  N   -0.714561   0.056489   0.804873  -0.349861   7.217269  -0.141587
     6  N    0.368935  -0.030994  -0.066807   0.289151  -0.141587   6.933830
     7  B   -0.246201  -0.014804   0.569281   0.033324  -0.012381  -0.117902
     8  C   -0.143970  -0.004495   0.006732   0.101991   0.028051  -0.025552
     9  H   -0.018079  -0.000280   0.001142  -0.007984  -0.028973   0.002071
    10  H   -0.007876   0.000340  -0.002484  -0.085623   0.058286  -0.003691
    11  H    0.052840  -0.017082  -0.017487  -0.026564  -0.030116   0.011918
    12  C   -0.273567   0.025177   0.759758  -0.036799   0.000273   0.028008
    13  C   -0.448199   0.036452  -0.216160  -0.078754   0.244697  -0.327192
    14  H   -0.000945  -0.000100  -0.005705  -0.000012   0.000579  -0.000566
    15  C   -0.744056   0.106940   0.795015   0.014115  -0.040010   0.053581
    16  C    1.469233  -0.171374  -1.553173   0.093899  -0.155940   0.165165
    17  H    0.004084  -0.001390  -0.005488   0.000233  -0.000508   0.000900
               7          8          9         10         11         12
     1  C   -0.246201  -0.143970  -0.018079  -0.007876   0.052840  -0.273567
     2  H   -0.014804  -0.004495  -0.000280   0.000340  -0.017082   0.025177
     3  C    0.569281   0.006732   0.001142  -0.002484  -0.017487   0.759758
     4  N    0.033324   0.101991  -0.007984  -0.085623  -0.026564  -0.036799
     5  N   -0.012381   0.028051  -0.028973   0.058286  -0.030116   0.000273
     6  N   -0.117902  -0.025552   0.002071  -0.003691   0.011918   0.028008
     7  B    3.752943   0.007039   0.000406  -0.000186   0.000430   0.634225
     8  C    0.007039   5.189923   0.402080   0.414812   0.384007  -0.001278
     9  H    0.000406   0.402080   0.496771  -0.028715  -0.036608  -0.000004
    10  H   -0.000186   0.414812  -0.028715   0.473301  -0.026500  -0.000031
    11  H    0.000430   0.384007  -0.036608  -0.026500   0.522055  -0.002328
    12  C    0.634225  -0.001278  -0.000004  -0.000031  -0.002328  12.562961
    13  C   -0.169137  -0.003015  -0.000881  -0.000361  -0.001462  -8.468567
    14  H   -0.004417   0.000037  -0.000008   0.000009   0.000004  -0.022907
    15  C    0.749859  -0.011159  -0.000197  -0.000925  -0.004081   0.607702
    16  C   -0.602575   0.018303   0.001021   0.000853   0.007382   0.121343
    17  H   -0.008943   0.000010   0.000007  -0.000007   0.000049  -0.001138
              13         14         15         16         17
     1  C   -0.448199  -0.000945  -0.744056   1.469233   0.004084
     2  H    0.036452  -0.000100   0.106940  -0.171374  -0.001390
     3  C   -0.216160  -0.005705   0.795015  -1.553173  -0.005488
     4  N   -0.078754  -0.000012   0.014115   0.093899   0.000233
     5  N    0.244697   0.000579  -0.040010  -0.155940  -0.000508
     6  N   -0.327192  -0.000566   0.053581   0.165165   0.000900
     7  B   -0.169137  -0.004417   0.749859  -0.602575  -0.008943
     8  C   -0.003015   0.000037  -0.011159   0.018303   0.000010
     9  H   -0.000881  -0.000008  -0.000197   0.001021   0.000007
    10  H   -0.000361   0.000009  -0.000925   0.000853  -0.000007
    11  H   -0.001462   0.000004  -0.004081   0.007382   0.000049
    12  C   -8.468567  -0.022907   0.607702   0.121343  -0.001138
    13  C   17.748581   0.395440   0.290194  -2.605521  -0.018667
    14  H    0.395440   0.345687  -0.000696  -0.015219  -0.000180
    15  C    0.290194  -0.000696  12.743717  -8.806561  -0.062744
    16  C   -2.605521  -0.015219  -8.806561  18.329167   0.438576
    17  H   -0.018667  -0.000180  -0.062744   0.438576   0.350366
 Mulliken charges:
               1
     1  C   -0.264090
     2  H    0.279732
     3  C   -0.706617
     4  N    0.212435
     5  N    0.063418
     6  N   -0.139269
     7  B    0.429039
     8  C   -0.363514
     9  H    0.218231
    10  H    0.208798
    11  H    0.183543
    12  C    0.067173
    13  C   -0.377449
    14  H    0.309000
    15  C    0.309306
    16  C   -0.734579
    17  H    0.304843
 Sum of Mulliken charges =  -0.00000
 Mulliken charges with hydrogens summed into heavy atoms:
               1
     1  C    0.015642
     3  C   -0.706617
     4  N    0.212435
     5  N    0.063418
     6  N   -0.139269
     7  B    0.429039
     8  C    0.247058
    12  C    0.067173
    13  C   -0.068449
    15  C    0.309306
    16  C   -0.429737
 Electronic spatial extent (au):  <R**2>=           4980.2667
 Charge=             -0.0000 electrons
 Dipole moment (field-independent basis, Debye):
    X=             -1.2754    Y=              4.3699    Z=              3.3681  Tot=              5.6628
 Quadrupole moment (field-independent basis, Debye-Ang):
   XX=            -67.5846   YY=            -42.5795   ZZ=            -56.8051
   XY=              3.6316   XZ=              8.9064   YZ=              7.7337
 Traceless Quadrupole moment (field-independent basis, Debye-Ang):
   XX=            -11.9282   YY=             13.0769   ZZ=             -1.1487
   XY=              3.6316   XZ=              8.9064   YZ=              7.7337
 Octapole moment (field-independent basis, Debye-Ang**2):
  XXX=           -635.0593  YYY=            -42.3166  ZZZ=           -106.1582  XYY=           -153.5871
  XXY=            -32.5124  XXZ=            -36.4575  XZZ=           -166.8853  YZZ=             -5.8070
  YYZ=            -64.4680  XYZ=             28.4730
 Hexadecapole moment (field-independent basis, Debye-Ang**3):
 XXXX=          -4808.3782 YYYY=           -979.3036 ZZZZ=           -807.4671 XXXY=             50.2901
 XXXZ=           -752.1064 YYYX=             64.7247 YYYZ=             94.6548 ZZZX=           -435.7624
 ZZZY=            120.2880 XXYY=           -783.1289 XXZZ=           -782.2473 YYZZ=           -438.5351
 XXYZ=            140.1246 YYXZ=           -313.2564 ZZXY=            125.5725
 N-N= 4.874578316528D+02 E-N=-2.043552877438D+03  KE= 4.575133788978D+02
 Breneman (CHELPG) radii used.
 Generate Potential Derived Charges using the Breneman model, NDens= 1.
 Grid spacing= 0.300 Box extension= 2.800
 NStep X,Y,Z=   36     47     40   Total possible points=       67680
 Number of Points to Fit=   13548

 **********************************************************************

            Electrostatic Properties Using The SCF Density.

 **********************************************************************

       Atomic Center    1 is at   2.608753  1.613085  1.169613
       Atomic Center    2 is at   2.652504  2.123672  2.117787
       Atomic Center    3 is at   3.154378  0.413812  0.742346
       Atomic Center    4 is at   1.941979  2.094116  0.116294
       Atomic Center    5 is at   2.054437  1.252941 -0.936423
       Atomic Center    6 is at   2.771425  0.253363 -0.569120
       Atomic Center    7 is at   4.015504 -0.583062  1.526610
       Atomic Center    8 is at   1.216083  3.342949 -0.022263
       Atomic Center    9 is at   1.888326  4.135102 -0.353747
       Atomic Center   10 is at   0.429458  3.198070 -0.759850
       Atomic Center   11 is at   0.775721  3.607629  0.937678
       Atomic Center   12 is at   4.529364 -1.864187  0.886063
       Atomic Center   13 is at   4.942152 -2.882156  0.386904
       Atomic Center   14 is at   5.302250 -3.779073 -0.062409
       Atomic Center   15 is at   4.366180 -0.281289  2.983854
       Atomic Center   16 is at   4.637883 -0.034301  4.133633
       Atomic Center   17 is at   4.884404  0.172646  5.149871
   13548 points will be used for fitting atomic charges
 Fitting point charges to electrostatic potential
 Charges from ESP fit, RMS=   0.00513 RRMS=   0.20160:
 ESP charges:
               1
     1  C   -0.331162
     2  H    0.160151
     3  C    0.139171
     4  N    0.620577
     5  N   -0.332145
     6  N   -0.340926
     7  B    0.484522
     8  C   -0.428067
     9  H    0.154271
    10  H    0.133429
    11  H    0.161878
    12  C   -0.197065
    13  C   -0.269818
    14  H    0.262878
    15  C   -0.227742
    16  C   -0.241480
    17  H    0.251529
 Sum of ESP charges =  -0.00000
 ESP charges with hydrogens summed into heavy atoms:
               1
     1  C   -0.171011
     3  C    0.139171
     4  N    0.620577
     5  N   -0.332145
     6  N   -0.340926
     7  B    0.484522
     8  C    0.021511
    12  C   -0.197065
    13  C   -0.006940
    15  C   -0.227742
    16  C    0.010049
 Charge=  -0.00000 Dipole=    -1.1573     4.1452     3.3603 Tot=     5.4602
 -----------------------------------------------------------------

              Electrostatic Properties (Atomic Units)

 -----------------------------------------------------------------
    Center     Electric         -------- Electric Field --------
               Potential          X             Y             Z
 -----------------------------------------------------------------
    1 Atom    -14.711852
    2 Atom     -1.037634
    3 Atom    -14.765321
    4 Atom    -18.284308
    5 Atom    -18.351362
    6 Atom    -18.388973
    7 Atom    -11.431084
    8 Atom    -14.701394
    9 Atom     -1.067850
   10 Atom     -1.068239
   11 Atom     -1.057694
   12 Atom    -14.807183
   13 Atom    -14.784515
   14 Atom     -1.035736
   15 Atom    -14.793561
   16 Atom    -14.770408
   17 Atom     -1.021667
 -----------------------------------------------------------------
 Unable to Open any file for archive entry.
 1\1\GINC-IRENE4921\SP\RwB97XD\GenECP\C7H6B1N3\PENASFRA\09-Apr-2024\0\\
 # wb97xd/genecp scrf=(solvent=toluene,pcm) nosymm pop=(chelpg) scfcyc=
 300\\ethy_metriazole_chelpg\\0,1\C,0,2.608753,1.613085,1.169613\H,0,2.
 652504,2.123672,2.117787\C,0,3.154378,0.413812,0.742346\N,0,1.941979,2
 .094116,0.116294\N,0,2.054437,1.252941,-0.936423\N,0,2.771425,0.253363
 ,-0.56912\B,0,4.015504,-0.583062,1.52661\C,0,1.216083,3.342949,-0.0222
 63\H,0,1.888326,4.135102,-0.353747\H,0,0.429458,3.19807,-0.75985\H,0,0
 .775721,3.607629,0.937678\C,0,4.529364,-1.864187,0.886063\C,0,4.942152
 ,-2.882156,0.386904\H,0,5.30225,-3.779073,-0.062409\C,0,4.36618,-0.281
 289,2.983854\C,0,4.637883,-0.034301,4.133633\H,0,4.884404,0.172646,5.1
 49871\\Version=AS64L-G16RevC.02\HF=-459.2736309\RMSD=8.144e-09\Dipole=
 -0.5017907,1.71927,1.3251085\Quadrupole=-8.8683291,9.7223773,-0.854048
 2,2.6999848,6.6216797,5.7498378\PG=C01 [X(C7H6B1N3)]\\@
 The archive entry for this job was punched.


 FRICTION IS A DRAG,
 AND ENTROPY AIN'T WHAT IT USED TO BE.
 Job cpu time:       0 days  0 hours 27 minutes 17.8 seconds.
 Elapsed time:       0 days  0 hours  0 minutes 16.7 seconds.
 File lengths (MBytes):  RWF=     94 Int=      0 D2E=      0 Chk=      6 Scr=      1
 Normal termination of Gaussian 16 at Tue Apr  9 15:55:26 2024.
