 Entering Gaussian System, Link 0=/ccc/products/gaussian-16-C.02/system/default/g16/g16
 Input=f_biphenylene_chelpg.gjf
 Output=f_biphenylene_chelpg.log
 Initial command:
 /ccc/products/gaussian-16-C.02/system/default/g16/l1.exe "/ccc/scratch/cont003/gen7343/penasfra/flp/b-n_flp/f_biphenylene/reac/Gau-2297218.inp" -scrdir="/ccc/scratch/cont003/gen7343/penasfra/flp/b-n_flp/f_biphenylene/reac/"
 Entering Link 1 = /ccc/products/gaussian-16-C.02/system/default/g16/l1.exe PID=   2297267.
  
 Copyright (c) 1988-2021, Gaussian, Inc.  All Rights Reserved.
  
 This is part of the Gaussian(R) 16 program.  It is based on
 the Gaussian(R) 09 system (copyright 2009, Gaussian, Inc.),
 the Gaussian(R) 03 system (copyright 2003, Gaussian, Inc.),
 the Gaussian(R) 98 system (copyright 1998, Gaussian, Inc.),
 the Gaussian(R) 94 system (copyright 1995, Gaussian, Inc.),
 the Gaussian 92(TM) system (copyright 1992, Gaussian, Inc.),
 the Gaussian 90(TM) system (copyright 1990, Gaussian, Inc.),
 the Gaussian 88(TM) system (copyright 1988, Gaussian, Inc.),
 the Gaussian 86(TM) system (copyright 1986, Carnegie Mellon
 University), and the Gaussian 82(TM) system (copyright 1983,
 Carnegie Mellon University). Gaussian is a federally registered
 trademark of Gaussian, Inc.
  
 This software contains proprietary and confidential information,
 including trade secrets, belonging to Gaussian, Inc.
  
 This software is provided under written license and may be
 used, copied, transmitted, or stored only in accord with that
 written license.
  
 The following legend is applicable only to US Government
 contracts under FAR:
  
                    RESTRICTED RIGHTS LEGEND
  
 Use, reproduction and disclosure by the US Government is
 subject to restrictions as set forth in subparagraphs (a)
 and (c) of the Commercial Computer Software - Restricted
 Rights clause in FAR 52.227-19.
  
 Gaussian, Inc.
 340 Quinnipiac St., Bldg. 40, Wallingford CT 06492
  
  
 ---------------------------------------------------------------
 Warning -- This program may not be used in any manner that
 competes with the business of Gaussian, Inc. or will provide
 assistance to any competitor of Gaussian, Inc.  The licensee
 of this program is prohibited from giving any competitor of
 Gaussian, Inc. access to this program.  By using this program,
 the user acknowledges that Gaussian, Inc. is engaged in the
 business of creating and licensing software in the field of
 computational chemistry and represents and warrants to the
 licensee that it is not a competitor of Gaussian, Inc. and that
 it will not use this program in any manner prohibited above.
 ---------------------------------------------------------------
  

 Cite this work as:
 Gaussian 16, Revision C.02,
 M. J. Frisch, G. W. Trucks, H. B. Schlegel, G. E. Scuseria, 
 M. A. Robb, J. R. Cheeseman, G. Scalmani, V. Barone, 
 G. A. Petersson, H. Nakatsuji, X. Li, M. Caricato, A. V. Marenich, 
 J. Bloino, B. G. Janesko, R. Gomperts, B. Mennucci, H. P. Hratchian, 
 J. V. Ortiz, A. F. Izmaylov, J. L. Sonnenberg, D. Williams-Young, 
 F. Ding, F. Lipparini, F. Egidi, J. Goings, B. Peng, A. Petrone, 
 T. Henderson, D. Ranasinghe, V. G. Zakrzewski, J. Gao, N. Rega, 
 G. Zheng, W. Liang, M. Hada, M. Ehara, K. Toyota, R. Fukuda, 
 J. Hasegawa, M. Ishida, T. Nakajima, Y. Honda, O. Kitao, H. Nakai, 
 T. Vreven, K. Throssell, J. A. Montgomery, Jr., J. E. Peralta, 
 F. Ogliaro, M. J. Bearpark, J. J. Heyd, E. N. Brothers, K. N. Kudin, 
 V. N. Staroverov, T. A. Keith, R. Kobayashi, J. Normand, 
 K. Raghavachari, A. P. Rendell, J. C. Burant, S. S. Iyengar, 
 J. Tomasi, M. Cossi, J. M. Millam, M. Klene, C. Adamo, R. Cammi, 
 J. W. Ochterski, R. L. Martin, K. Morokuma, O. Farkas, 
 J. B. Foresman, and D. J. Fox, Gaussian, Inc., Wallingford CT, 2019.
 
 ******************************************
 Gaussian 16:  AS64L-G16RevC.02  7-Dec-2021
                10-Apr-2024 
 ******************************************
 %nprocshared=128
 Will use up to  128 processors via shared memory.
 %mem=30GB
 %chk=f_biphenylene_chelpg.chk
 ----------------------------------------------------------------------
 # wb97xd/genecp scrf=(solvent=toluene,pcm) nosymm pop=(chelpg) scfcyc=
 300
 ----------------------------------------------------------------------
 1/38=1,172=1/1;
 2/12=2,15=1,17=6,18=5,40=1/2;
 3/5=7,11=2,16=1,17=8,25=1,30=1,70=2201,72=13,74=-58/1,2,3;
 4//1;
 5/5=2,7=300,38=5,53=13/2;
 6/7=2,8=2,9=2,10=2,15=8,20=3,28=1/1,2;
 99/5=1,9=1/99;
 --------------------
 f_biphenylene_chelpg
 --------------------
 Symbolic Z-matrix:
 Charge =  0 Multiplicity = 1
 C                     1.8778    2.47274  -0.15979 
 C                     1.82921   2.53947  -1.57694 
 C                     1.54584   4.0139   -1.49504 
 C                     1.53219   3.93898  -0.08546 
 C                     1.38558   5.17847  -2.193 
 C                     1.26301   5.03768   0.71417 
 C                     1.17903   6.31946  -1.38982 
 H                     1.41604   5.24259  -3.2731 
 C                     1.11124   6.2557   -0.00906 
 H                     1.04487   7.28466  -1.86629 
 H                     0.91323   7.17129   0.5333 
 C                     2.0417    1.45688  -2.37523 
 H                     2.00927   1.50254  -3.45734 
 C                     2.32033   0.23692  -1.70396 
 H                     2.48629  -0.66159  -2.28719 
 C                     2.40605   0.17438  -0.33201 
 C                     2.2102    1.3157    0.51155 
 H                     2.64908  -0.77452   0.13349 
 B                     2.50358   1.20108   2.01882 
 N                     1.14452   4.95871   2.09731 
 C                     1.06415   6.19377   2.85006 
 H                     0.10479   6.71883   2.71437 
 H                     1.17341   5.95955   3.91063 
 H                     1.8776    6.86484   2.57002 
 C                     0.25025   3.92969   2.60801 
 H                     0.52406   3.6767    3.63374 
 H                    -0.79617   4.27159   2.59394 
 H                     0.31543   3.02671   2.00387 
 F                     2.71258   2.25272   2.8042 
 F                     2.62176   0.01089   2.61141 
 
                          Input orientation:                          
 ---------------------------------------------------------------------
 Center     Atomic      Atomic             Coordinates (Angstroms)
 Number     Number       Type             X           Y           Z
 ---------------------------------------------------------------------
      1          6           0        1.877801    2.472741   -0.159790
      2          6           0        1.829211    2.539468   -1.576939
      3          6           0        1.545838    4.013897   -1.495039
      4          6           0        1.532193    3.938977   -0.085458
      5          6           0        1.385578    5.178465   -2.193000
      6          6           0        1.263011    5.037682    0.714167
      7          6           0        1.179034    6.319462   -1.389821
      8          1           0        1.416035    5.242585   -3.273102
      9          6           0        1.111240    6.255697   -0.009059
     10          1           0        1.044868    7.284660   -1.866289
     11          1           0        0.913227    7.171289    0.533301
     12          6           0        2.041696    1.456883   -2.375225
     13          1           0        2.009271    1.502544   -3.457337
     14          6           0        2.320327    0.236922   -1.703959
     15          1           0        2.486290   -0.661585   -2.287188
     16          6           0        2.406051    0.174375   -0.332006
     17          6           0        2.210202    1.315695    0.511548
     18          1           0        2.649077   -0.774517    0.133493
     19          5           0        2.503583    1.201079    2.018817
     20          7           0        1.144524    4.958706    2.097311
     21          6           0        1.064147    6.193769    2.850063
     22          1           0        0.104794    6.718827    2.714371
     23          1           0        1.173410    5.959545    3.910630
     24          1           0        1.877597    6.864840    2.570017
     25          6           0        0.250252    3.929687    2.608005
     26          1           0        0.524058    3.676704    3.633737
     27          1           0       -0.796170    4.271588    2.593939
     28          1           0        0.315430    3.026705    2.003866
     29          9           0        2.712575    2.252722    2.804198
     30          9           0        2.621761    0.010889    2.611409
 ---------------------------------------------------------------------
                    Distance matrix (angstroms):
                    1          2          3          4          5
     1  C    0.000000
     2  C    1.419551   0.000000
     3  C    2.065975   1.503645   0.000000
     4  C    1.508250   2.066727   1.411637   0.000000
     5  C    3.420112   2.746024   1.367133   2.449400   0.000000
     6  C    2.778613   3.436688   2.451269   1.385284   2.913153
     7  C    4.098599   3.840065   2.336931   2.737297   1.410543
     8  H    4.192610   3.217845   2.165186   3.445861   1.082432
     9  C    3.862783   4.096839   2.724459   2.355893   2.450569
    10  H    5.173053   4.818274   3.329668   3.821314   2.158444
    11  H    4.846352   5.171644   3.805717   3.348705   3.409865
    12  C    2.442741   1.361764   2.749350   3.415174   3.783367
    13  H    3.439823   2.154885   3.220602   4.187288   3.936996
    14  C    2.753030   2.357763   3.861220   4.116541   5.052897
    15  H    3.836676   3.344091   4.834468   5.188746   5.943620
    16  C    2.364570   2.734276   4.102992   3.872550   5.435585
    17  C    1.378383   2.450419   3.427545   2.774477   4.787022
    18  H    3.350458   3.818410   5.176694   4.848958   6.515136
    19  B    2.599049   3.895577   4.601783   3.587152   5.899910
    20  N    3.436891   4.452148   3.736134   2.440208   4.302693
    21  C    4.854616   5.791164   4.885057   3.731010   5.154284
    22  H    5.425274   6.233458   5.206956   4.195721   5.300511
    23  H    5.405764   6.499263   5.757213   4.492231   6.157061
    24  H    5.171304   5.992364   4.976205   3.966299   5.076640
    25  C    3.525946   4.683970   4.303557   2.982985   5.089014
    26  H    4.203926   5.490708   5.240427   3.862322   6.078517
    27  H    4.238985   5.223896   4.719232   3.565259   5.338280
    28  H    2.725672   3.918048   3.838071   2.584188   4.836215
    29  F    3.087148   4.478495   4.790245   3.547798   5.940781
    30  F    3.780706   4.956219   5.834775   4.887753   7.163403
                    6          7          8          9         10
     6  C    0.000000
     7  C    2.465112   0.000000
     8  H    3.995462   2.182334   0.000000
     9  C    1.424658   1.383895   3.431220   0.000000
    10  H    3.428593   1.084726   2.507381   2.124258   0.000000
    11  H    2.169641   2.120062   4.296675   1.082438   2.405871
    12  C    4.792996   5.035860   3.940707   5.430756   5.934279
    13  H    5.518655   5.307223   3.791277   5.940500   6.074074
    14  C    5.478371   6.196654   5.323215   6.368691   7.164060
    15  H    6.556385   7.158855   6.080847   7.411439   8.086882
    16  C    5.104192   6.355048   5.942805   6.226019   7.400202
    17  C    3.845961   5.451256   5.511329   5.087472   6.529981
    18  H    6.003334   7.403111   7.023589   7.197859   8.457124
    19  B    4.238001   6.290555   6.746921   5.621393   7.364228
    20  N    1.390454   3.743386   5.384760   2.473881   4.596751
    21  C    2.436829   4.243302   6.206587   2.860180   4.840908
    22  H    2.858064   4.261206   6.304639   2.940152   4.710239
    23  H    3.327948   5.312660   7.223497   3.931353   5.928343
    24  H    2.675893   4.057800   6.081677   2.758621   4.533266
    25  C    2.416600   4.749345   6.137603   3.605641   5.648590
    26  H    3.304875   5.713956   7.138069   4.501772   6.598399
    27  H    2.891482   4.895463   6.344987   3.788205   5.688731
    28  H    2.570070   4.806784   5.828194   3.887360   5.800031
    29  F    3.771666   6.039861   6.895932   5.148058   7.065062
    30  F    5.542055   7.608508   7.965669   6.938743   8.685857
                   11         12         13         14         15
    11  H    0.000000
    12  C    6.510561   0.000000
    13  H    7.018630   1.083560   0.000000
    14  C    7.420964   1.420049   2.184694   0.000000
    15  H    8.472520   2.166407   2.506043   1.083981   0.000000
    16  C    7.206531   2.439739   3.418942   1.376051   2.127911
    17  C    5.997549   2.895132   3.978358   2.466648   3.437846
    18  H    8.143025   3.411997   4.299816   2.123044   2.428775
    19  B    6.354479   4.425650   5.506677   3.849967   4.691641
    20  N    2.719402   5.750762   6.599012   6.174740   7.253402
    21  C    2.519069   7.120205   7.917332   7.602705   8.683877
    22  H    2.369673   7.572558   8.302206   8.151400   9.228087
    23  H    3.597551   7.780736   8.651616   8.098607   9.163840
    24  H    2.274232   7.329962   8.068491   7.898872   8.978308
    25  C    3.905370   5.844366   6.765615   6.042744   7.074077
    26  H    4.687887   6.583195   7.564136   6.599218   7.597925
    27  H    3.946712   6.377197   7.221914   6.668059   7.676988
    28  H    4.438186   4.961932   5.917508   5.054747   6.060467
    29  F    5.708496   5.282978   6.345410   4.953866   5.870826
    30  F    7.649114   5.224356   6.279320   4.331784   4.946395
                   16         17         18         19         20
    16  C    0.000000
    17  C    1.432673   0.000000
    18  H    1.084503   2.168991   0.000000
    19  B    2.567100   1.539828   2.734702   0.000000
    20  N    5.512064   4.113617   6.244206   3.996619   0.000000
    21  C    6.939695   5.529711   7.645179   5.262119   1.448612
    22  H    7.576678   6.203145   8.323732   6.056693   2.135375
    23  H    7.279255   5.847567   7.860785   5.290682   2.071386
    24  H    7.311862   5.927979   8.055533   5.724847   2.096233
    25  C    5.233880   3.881944   5.831561   3.587471   1.455820
    26  H    5.615632   4.262102   6.048205   3.557415   2.095021
    27  H    5.966785   4.702332   6.586858   4.543915   2.117797
    28  H    4.238252   2.957149   4.836682   2.849763   2.104461
    29  F    3.774819   2.527181   4.037434   1.329080   3.206372
    30  F    2.955833   2.506255   2.599553   1.334797   5.189164
                   21         22         23         24         25
    21  C    0.000000
    22  H    1.102024   0.000000
    23  H    1.091605   1.774679   0.000000
    24  H    1.091083   1.784654   1.764279   0.000000
    25  C    2.418075   2.794955   2.582514   3.356310   0.000000
    26  H    2.690996   3.205547   2.389496   3.623228   1.091374
    27  H    2.687221   2.610597   2.908972   3.724857   1.100951
    28  H    3.362577   3.765760   3.601865   4.182365   1.088397
    29  F    4.272151   5.172493   4.163383   4.692937   2.985588
    30  F    6.380527   7.165344   6.258770   6.894355   4.580507
                   26         27         28         29         30
    26  H    0.000000
    27  H    1.782714   0.000000
    28  H    1.767061   1.770190   0.000000
    29  F    2.739611   4.053556   2.643083   0.000000
    30  F    4.345539   5.462244   3.844921   2.251939   0.000000
 Symmetry turned off by external request.
 Stoichiometry    C14H12BF2N
 Framework group  C1[X(C14H12BF2N)]
 Deg. of freedom    84
 Full point group                 C1      NOp   1
 Rotational constants (GHZ):           0.5641247           0.3969760           0.2422808
 General basis read from cards:  (5D, 7F)
 ======================================================================================================
                                       Pseudopotential Parameters
 ======================================================================================================
  Center     Atomic      Valence      Angular      Power
  Number     Number     Electrons     Momentum     of R      Exponent        Coefficient   SO-Coeffient
 ======================================================================================================
    1          6
                                   No pseudopotential on this center.
    2          6
                                   No pseudopotential on this center.
    3          6
                                   No pseudopotential on this center.
    4          6
                                   No pseudopotential on this center.
    5          6
                                   No pseudopotential on this center.
    6          6
                                   No pseudopotential on this center.
    7          6
                                   No pseudopotential on this center.
    8          1
                                   No pseudopotential on this center.
    9          6
                                   No pseudopotential on this center.
   10          1
                                   No pseudopotential on this center.
   11          1
                                   No pseudopotential on this center.
   12          6
                                   No pseudopotential on this center.
   13          1
                                   No pseudopotential on this center.
   14          6
                                   No pseudopotential on this center.
   15          1
                                   No pseudopotential on this center.
   16          6
                                   No pseudopotential on this center.
   17          6
                                   No pseudopotential on this center.
   18          1
                                   No pseudopotential on this center.
   19          5
                                   No pseudopotential on this center.
   20          7
                                   No pseudopotential on this center.
   21          6
                                   No pseudopotential on this center.
   22          1
                                   No pseudopotential on this center.
   23          1
                                   No pseudopotential on this center.
   24          1
                                   No pseudopotential on this center.
   25          6
                                   No pseudopotential on this center.
   26          1
                                   No pseudopotential on this center.
   27          1
                                   No pseudopotential on this center.
   28          1
                                   No pseudopotential on this center.
   29          9
                                   No pseudopotential on this center.
   30          9
                                   No pseudopotential on this center.
 ======================================================================================================
   480 basis functions,   756 primitive gaussians,   498 cartesian basis functions
    63 alpha electrons       63 beta electrons
       nuclear repulsion energy      1242.4631059683 Hartrees.
 NAtoms=   30 NActive=   30 NUniq=   30 SFac= 1.00D+00 NAtFMM=   60 NAOKFM=F Big=F
 Integral buffers will be    131072 words long.
 Raffenetti 2 integral format.
 Two-electron integral symmetry is turned off.
 Nuclear repulsion after empirical dispersion term =     1242.4404558880 Hartrees.
 ------------------------------------------------------------------------------
 Polarizable Continuum Model (PCM)
 =================================
 Model                : PCM.
 Atomic radii         : UFF (Universal Force Field).
 Polarization charges : Total charges.
 Charge compensation  : None.
 Solution method      : On-the-fly selection.
 Cavity type          : Scaled VdW (van der Waals Surface) (Alpha=1.100).
 Cavity algorithm     : GePol (No added spheres)
                        Default sphere list used, NSphG=   30.
                        Lebedev-Laikov grids with approx.  5.0 points / Ang**2.
                        Smoothing algorithm: York/Karplus (Gamma=1.0000).
                        Polarization charges: spherical gaussians, with
                                              point-specific exponents (IZeta= 3).
                        Self-potential: point-specific (ISelfS= 7).
                        Self-field    : sphere-specific E.n sum rule (ISelfD= 2).
 Solvent              : Toluene, Eps=   2.374100 Eps(inf)=   2.238315
 ------------------------------------------------------------------------------
 One-electron integrals computed using PRISM.
   1 Symmetry operations used in ECPInt.
 ECPInt:  NShTT=   14196 NPrTT=   51081 LenC2=   13126 LenP2D=   32640.
 LDataN:  DoStor=T MaxTD1= 4 Len=   56
 Number of processors reduced to  97 by ecpmxn.
 NBasis=   480 RedAO= T EigKep=  1.14D-06  NBF=   480
 NBsUse=   474 1.00D-06 EigRej=  7.92D-07 NBFU=   474
 ExpMin= 3.15D-02 ExpMax= 1.14D+04 ExpMxC= 1.72D+03 IAcc=3 IRadAn=         5 AccDes= 0.00D+00
 Harris functional with IExCor= 4639 and IRadAn=       5 diagonalized for initial guess.
 HarFok:  IExCor= 4639 AccDes= 0.00D+00 IRadAn=         5 IDoV= 1 UseB2=F ITyADJ=14
 ICtDFT=  3500011 ScaDFX=  1.000000  1.000000  1.000000  1.000000
 FoFCou: FMM=F IPFlag=           0 FMFlag=      100000 FMFlg1=           0
         NFxFlg=           0 DoJE=T BraDBF=F KetDBF=T FulRan=T
         wScrn=  0.000000 ICntrl=       500 IOpCl=  0 I1Cent=   200000004 NGrid=           0
         NMat0=    1 NMatS0=      1 NMatT0=    0 NMatD0=    1 NMtDS0=    0 NMtDT0=    0
 Symmetry not used in FoFCou.
 Requested convergence on RMS density matrix=1.00D-08 within 300 cycles.
 Requested convergence on MAX density matrix=1.00D-06.
 Requested convergence on             energy=1.00D-06.
 No special actions if energy rises.
 Inv3:  Mode=1 IEnd=    16694643.
 Iteration    1 A*A^-1 deviation from unit magnitude is 5.77D-15 for   2356.
 Iteration    1 A*A^-1 deviation from orthogonality  is 3.10D-15 for   2335   1088.
 Iteration    1 A^-1*A deviation from unit magnitude is 5.77D-15 for   2356.
 Iteration    1 A^-1*A deviation from orthogonality  is 2.68D-15 for   2356   2296.
 Error on total polarization charges =  0.00988
 SCF Done:  E(RwB97XD) =  -820.014590598     A.U. after   17 cycles
            NFock= 17  Conv=0.65D-08     -V/T= 2.0038

 **********************************************************************

            Population analysis using the SCF Density.

 **********************************************************************

 Alpha  occ. eigenvalues --  -24.82066 -24.82015 -14.45098 -10.34076 -10.32296
 Alpha  occ. eigenvalues --  -10.31007 -10.30967 -10.30950 -10.30927 -10.30447
 Alpha  occ. eigenvalues --  -10.30206 -10.30165 -10.29995 -10.29732 -10.29348
 Alpha  occ. eigenvalues --  -10.29326 -10.29240  -6.95842  -1.34302  -1.31217
 Alpha  occ. eigenvalues --   -1.05859  -1.01671  -0.95377  -0.91019  -0.86991
 Alpha  occ. eigenvalues --   -0.85477  -0.82459  -0.80878  -0.77204  -0.73278
 Alpha  occ. eigenvalues --   -0.72212  -0.68300  -0.67579  -0.65421  -0.63228
 Alpha  occ. eigenvalues --   -0.62426  -0.58903  -0.58626  -0.58196  -0.57935
 Alpha  occ. eigenvalues --   -0.56436  -0.55982  -0.55046  -0.53892  -0.52724
 Alpha  occ. eigenvalues --   -0.51631  -0.51209  -0.50360  -0.49982  -0.49246
 Alpha  occ. eigenvalues --   -0.48503  -0.47955  -0.47056  -0.45864  -0.45217
 Alpha  occ. eigenvalues --   -0.43386  -0.42334  -0.41272  -0.38460  -0.37702
 Alpha  occ. eigenvalues --   -0.35180  -0.29348  -0.27436
 Alpha virt. eigenvalues --   -0.00506   0.00750   0.03853   0.04535   0.04897
 Alpha virt. eigenvalues --    0.05934   0.06112   0.06446   0.07112   0.07472
 Alpha virt. eigenvalues --    0.07808   0.08239   0.08327   0.08917   0.09715
 Alpha virt. eigenvalues --    0.10142   0.10380   0.10489   0.11509   0.12559
 Alpha virt. eigenvalues --    0.12838   0.13318   0.13589   0.14184   0.14601
 Alpha virt. eigenvalues --    0.14971   0.15082   0.15795   0.16036   0.16330
 Alpha virt. eigenvalues --    0.16619   0.17105   0.17389   0.17705   0.18192
 Alpha virt. eigenvalues --    0.18438   0.18699   0.18954   0.19088   0.19420
 Alpha virt. eigenvalues --    0.19987   0.20380   0.20778   0.21052   0.21226
 Alpha virt. eigenvalues --    0.21595   0.21733   0.22162   0.22832   0.22991
 Alpha virt. eigenvalues --    0.23376   0.23751   0.24179   0.24591   0.24821
 Alpha virt. eigenvalues --    0.25014   0.25454   0.25681   0.26123   0.26648
 Alpha virt. eigenvalues --    0.26997   0.27578   0.27858   0.28844   0.29097
 Alpha virt. eigenvalues --    0.29430   0.29817   0.30235   0.30630   0.31229
 Alpha virt. eigenvalues --    0.31345   0.31820   0.32251   0.32319   0.32671
 Alpha virt. eigenvalues --    0.33023   0.33755   0.34463   0.34514   0.34824
 Alpha virt. eigenvalues --    0.35545   0.35935   0.36519   0.36971   0.37481
 Alpha virt. eigenvalues --    0.37736   0.38396   0.38622   0.38771   0.38952
 Alpha virt. eigenvalues --    0.39775   0.40175   0.40533   0.40963   0.41396
 Alpha virt. eigenvalues --    0.41581   0.42307   0.42430   0.43573   0.44218
 Alpha virt. eigenvalues --    0.44577   0.45557   0.46161   0.47330   0.48101
 Alpha virt. eigenvalues --    0.49020   0.49921   0.50314   0.52550   0.52933
 Alpha virt. eigenvalues --    0.54730   0.56061   0.57726   0.58150   0.58528
 Alpha virt. eigenvalues --    0.59322   0.60222   0.61284   0.61874   0.62375
 Alpha virt. eigenvalues --    0.63265   0.63399   0.63978   0.64670   0.65097
 Alpha virt. eigenvalues --    0.66193   0.66750   0.67498   0.68108   0.68513
 Alpha virt. eigenvalues --    0.69148   0.69576   0.70210   0.70620   0.71312
 Alpha virt. eigenvalues --    0.71614   0.72291   0.72963   0.73832   0.74445
 Alpha virt. eigenvalues --    0.74739   0.75576   0.75673   0.76268   0.77208
 Alpha virt. eigenvalues --    0.78017   0.79057   0.79599   0.80511   0.81357
 Alpha virt. eigenvalues --    0.82551   0.83076   0.83469   0.83740   0.84715
 Alpha virt. eigenvalues --    0.85312   0.85868   0.86924   0.87788   0.88072
 Alpha virt. eigenvalues --    0.88652   0.90916   0.91687   0.92795   0.93937
 Alpha virt. eigenvalues --    0.94878   0.95199   0.96419   0.97293   0.98637
 Alpha virt. eigenvalues --    0.99249   0.99996   1.00797   1.00887   1.01037
 Alpha virt. eigenvalues --    1.02755   1.03706   1.04427   1.05261   1.05673
 Alpha virt. eigenvalues --    1.06383   1.07033   1.08563   1.09464   1.10185
 Alpha virt. eigenvalues --    1.11902   1.13386   1.13719   1.14534   1.16079
 Alpha virt. eigenvalues --    1.16286   1.17260   1.18699   1.19693   1.21315
 Alpha virt. eigenvalues --    1.21889   1.22545   1.24709   1.26366   1.29701
 Alpha virt. eigenvalues --    1.33761   1.35137   1.36542   1.37742   1.39805
 Alpha virt. eigenvalues --    1.40839   1.41548   1.44006   1.44308   1.46933
 Alpha virt. eigenvalues --    1.48029   1.48446   1.50128   1.52093   1.53570
 Alpha virt. eigenvalues --    1.54487   1.55144   1.56373   1.56453   1.57759
 Alpha virt. eigenvalues --    1.58082   1.59943   1.60933   1.61604   1.62359
 Alpha virt. eigenvalues --    1.63155   1.64220   1.65258   1.66313   1.67319
 Alpha virt. eigenvalues --    1.67782   1.69519   1.70000   1.71163   1.72550
 Alpha virt. eigenvalues --    1.73473   1.75694   1.76782   1.77561   1.78294
 Alpha virt. eigenvalues --    1.79227   1.80014   1.80508   1.81815   1.82835
 Alpha virt. eigenvalues --    1.84038   1.84891   1.85307   1.89745   1.89896
 Alpha virt. eigenvalues --    1.90912   1.91734   1.94235   1.94548   1.95597
 Alpha virt. eigenvalues --    1.96536   1.97098   1.97763   1.99409   1.99857
 Alpha virt. eigenvalues --    2.00164   2.02571   2.03446   2.04532   2.06188
 Alpha virt. eigenvalues --    2.06512   2.07370   2.08033   2.08206   2.11520
 Alpha virt. eigenvalues --    2.12394   2.15101   2.16041   2.16919   2.18028
 Alpha virt. eigenvalues --    2.20003   2.20483   2.22824   2.23937   2.26461
 Alpha virt. eigenvalues --    2.27056   2.29211   2.30493   2.31029   2.35090
 Alpha virt. eigenvalues --    2.36537   2.38228   2.42528   2.43233   2.44880
 Alpha virt. eigenvalues --    2.49365   2.50517   2.51989   2.54981   2.55312
 Alpha virt. eigenvalues --    2.56423   2.57551   2.58084   2.59713   2.62214
 Alpha virt. eigenvalues --    2.63710   2.64860   2.66555   2.66887   2.67602
 Alpha virt. eigenvalues --    2.69866   2.72237   2.73586   2.75273   2.76708
 Alpha virt. eigenvalues --    2.77993   2.79146   2.80870   2.81171   2.81235
 Alpha virt. eigenvalues --    2.82783   2.84025   2.84190   2.85533   2.86359
 Alpha virt. eigenvalues --    2.86864   2.88260   2.89301   2.90332   2.92443
 Alpha virt. eigenvalues --    2.93172   2.94346   2.95292   2.97110   2.98924
 Alpha virt. eigenvalues --    2.99844   3.02042   3.03495   3.06455   3.09434
 Alpha virt. eigenvalues --    3.10868   3.14091   3.17223   3.18500   3.19005
 Alpha virt. eigenvalues --    3.21945   3.27422   3.27882   3.30913   3.33102
 Alpha virt. eigenvalues --    3.35692   3.43396   3.46651   3.51180   3.51684
 Alpha virt. eigenvalues --    3.59868   3.61932   3.63889   3.65684   3.67675
 Alpha virt. eigenvalues --    3.68621   3.75008   3.78649   3.82777   3.85438
 Alpha virt. eigenvalues --    3.86275   3.87208   3.88085   3.89462   3.90810
 Alpha virt. eigenvalues --    3.92884   3.94468   3.96550   4.04281   4.06658
 Alpha virt. eigenvalues --    4.07726   4.10248   4.11746   4.13640   4.15679
 Alpha virt. eigenvalues --    4.22776   4.27745   4.37839   4.41647   4.45759
 Alpha virt. eigenvalues --    4.52886   4.63769   4.68958   4.87663   4.97310
 Alpha virt. eigenvalues --    5.00058   5.16437   6.41958   6.44233   6.51296
 Alpha virt. eigenvalues --    6.54902   6.57000   6.78896  14.80580  23.63457
 Alpha virt. eigenvalues --   23.80320  24.02292  24.04037  24.05667  24.08048
 Alpha virt. eigenvalues --   24.09017  24.10601  24.18249  24.23275  24.27696
 Alpha virt. eigenvalues --   24.29972  24.30943  24.48157  35.76422  66.95184
 Alpha virt. eigenvalues --   66.96584
          Condensed to atoms (all electrons):
               1          2          3          4          5          6
     1  C   18.274138   3.871648  -3.426339   0.614491  -1.606490  -0.050832
     2  C    3.871648  22.275651  -4.450419  -9.833991   1.465274   0.425181
     3  C   -3.426339  -4.450419  13.834961   1.236054  -3.094124  -0.696796
     4  C    0.614491  -9.833991   1.236054  16.582355  -2.872308   0.237649
     5  C   -1.606490   1.465274  -3.094124  -2.872308  10.508155   0.631798
     6  C   -0.050832   0.425181  -0.696796   0.237649   0.631798   8.564891
     7  C   -0.276395  -0.159100  -1.427875   0.251545   1.404186  -0.999056
     8  H   -0.015816   0.026242  -0.027446  -0.003195   0.411965  -0.001470
     9  C   -1.402022  -0.561840   1.691982   0.162696  -2.143104  -1.454553
    10  H   -0.000193   0.012630  -0.012969  -0.019271  -0.068454   0.039084
    11  H   -0.025678  -0.029203   0.044313   0.037359  -0.039722  -0.076184
    12  C   -5.178755  -3.124609   2.109243  -1.677265   1.581884   0.279267
    13  H   -0.005264  -0.088098   0.010714  -0.021098   0.017419   0.003174
    14  C    1.700193  -0.058252  -0.920003  -1.206733   0.234418   0.098234
    15  H   -0.012807   0.014005  -0.003036  -0.027746   0.004609   0.001563
    16  C   -4.487262  -0.912832   0.758416   1.763418  -0.295754  -0.334582
    17  C   -2.347948  -3.171049   0.525153   1.124250   0.234796  -0.174049
    18  H    0.052108   0.009951  -0.030676   0.027248  -0.001188  -0.010886
    19  B   -0.306286   0.048449   0.046811  -0.085500   0.041353   0.023022
    20  N   -0.008168  -0.190124  -0.117328   0.027837   0.009468  -0.129132
    21  C    0.030259   0.090040  -0.018073  -0.038553   0.031906  -0.071745
    22  H   -0.002185  -0.001680  -0.007085   0.005717   0.009810  -0.042706
    23  H   -0.001372   0.001781   0.002217  -0.013120  -0.003497   0.019346
    24  H    0.003219   0.011856  -0.000826   0.000520   0.003775  -0.007227
    25  C    0.124275   0.000331  -0.030828  -0.066373   0.022634  -0.050275
    26  H   -0.081068  -0.032004  -0.012447   0.015180  -0.001957   0.002305
    27  H    0.062289   0.049030   0.013774  -0.025265   0.010806  -0.003433
    28  H    0.081817  -0.062104  -0.023537   0.112662  -0.037935   0.047881
    29  F   -0.047386   0.027683   0.021488  -0.060045   0.001879   0.008873
    30  F    0.059488   0.011750   0.010166   0.005108   0.001310   0.006459
               7          8          9         10         11         12
     1  C   -0.276395  -0.015816  -1.402022  -0.000193  -0.025678  -5.178755
     2  C   -0.159100   0.026242  -0.561840   0.012630  -0.029203  -3.124609
     3  C   -1.427875  -0.027446   1.691982  -0.012969   0.044313   2.109243
     4  C    0.251545  -0.003195   0.162696  -0.019271   0.037359  -1.677265
     5  C    1.404186   0.411965  -2.143104  -0.068454  -0.039722   1.581884
     6  C   -0.999056  -0.001470  -1.454553   0.039084  -0.076184   0.279267
     7  C    7.744902  -0.026033  -0.582952   0.403522  -0.113720  -0.052257
     8  H   -0.026033   0.453504  -0.011992  -0.009889   0.002384   0.004122
     9  C   -0.582952  -0.011992  10.275575  -0.032649   0.558871   0.188253
    10  H    0.403522  -0.009889  -0.032649   0.451323  -0.010755   0.002358
    11  H   -0.113720   0.002384   0.558871  -0.010755   0.486096   0.006083
    12  C   -0.052257   0.004122   0.188253   0.002358   0.006083  11.017685
    13  H    0.000191   0.001092  -0.007313   0.000218  -0.000186   0.450402
    14  C    0.040177  -0.000390  -0.032531  -0.000000  -0.000741   1.171858
    15  H   -0.000114   0.000237   0.001146  -0.000032   0.000050  -0.036806
    16  C   -0.005674   0.001444   0.062973  -0.000176   0.001312  -2.088505
    17  C    0.240971   0.002069  -0.134390   0.004276  -0.002209   1.626365
    18  H   -0.000609   0.000062  -0.004487   0.000003  -0.000039  -0.046437
    19  B    0.007583   0.000293  -0.022105   0.000299  -0.000757   0.122019
    20  N    0.067606   0.000456  -0.344627  -0.000423  -0.027965  -0.032729
    21  C   -0.236609  -0.000849  -0.150946   0.000599   0.012877   0.020716
    22  H    0.027056   0.000098   0.001031   0.000374  -0.008993  -0.000942
    23  H   -0.009512  -0.000088   0.040772   0.000001   0.005783   0.001427
    24  H   -0.007776  -0.000117  -0.012173   0.000640  -0.011638   0.000609
    25  C    0.013736   0.000583  -0.121251   0.000921  -0.010718   0.021500
    26  H    0.013948   0.000056   0.034324   0.000015  -0.000129  -0.007009
    27  H   -0.021634  -0.000008  -0.062553  -0.000355  -0.000934   0.008275
    28  H   -0.008229  -0.000419  -0.005401   0.000002   0.000088  -0.041407
    29  F   -0.000414  -0.000037   0.008401   0.000012  -0.000229   0.006920
    30  F    0.000184  -0.000019   0.001665   0.000007   0.000023   0.007885
              13         14         15         16         17         18
     1  C   -0.005264   1.700193  -0.012807  -4.487262  -2.347948   0.052108
     2  C   -0.088098  -0.058252   0.014005  -0.912832  -3.171049   0.009951
     3  C    0.010714  -0.920003  -0.003036   0.758416   0.525153  -0.030676
     4  C   -0.021098  -1.206733  -0.027746   1.763418   1.124250   0.027248
     5  C    0.017419   0.234418   0.004609  -0.295754   0.234796  -0.001188
     6  C    0.003174   0.098234   0.001563  -0.334582  -0.174049  -0.010886
     7  C    0.000191   0.040177  -0.000114  -0.005674   0.240971  -0.000609
     8  H    0.001092  -0.000390   0.000237   0.001444   0.002069   0.000062
     9  C   -0.007313  -0.032531   0.001146   0.062973  -0.134390  -0.004487
    10  H    0.000218  -0.000000  -0.000032  -0.000176   0.004276   0.000003
    11  H   -0.000186  -0.000741   0.000050   0.001312  -0.002209  -0.000039
    12  C    0.450402   1.171858  -0.036806  -2.088505   1.626365  -0.046437
    13  H    0.437943  -0.013120  -0.004373  -0.017151   0.018175   0.001265
    14  C   -0.013120   8.575236   0.389110  -2.451471  -1.349872  -0.002811
    15  H   -0.004373   0.389110   0.442978  -0.019835   0.025049  -0.007898
    16  C   -0.017151  -2.451471  -0.019835  15.311390  -1.510524   0.510822
    17  C    0.018175  -1.349872   0.025049  -1.510524  11.072611  -0.178557
    18  H    0.001265  -0.002811  -0.007898   0.510822  -0.178557   0.469307
    19  B    0.001043   0.036293  -0.000017  -0.108404   0.575251  -0.034036
    20  N    0.000077  -0.018834  -0.000246   0.130089   0.144770   0.001915
    21  C    0.000049  -0.001458   0.000051  -0.007250  -0.024889  -0.000160
    22  H    0.000005  -0.000036  -0.000003   0.001613   0.004097   0.000021
    23  H    0.000006  -0.000313   0.000004  -0.002834  -0.004358  -0.000044
    24  H    0.000008   0.000242  -0.000006  -0.001404  -0.003820   0.000004
    25  C    0.000533   0.010903  -0.000058  -0.115392  -0.107445  -0.002272
    26  H   -0.000061  -0.003719  -0.000023   0.048594   0.058734   0.000140
    27  H    0.000082   0.004279   0.000036  -0.032975  -0.048850  -0.000350
    28  H   -0.000358   0.007391  -0.000002   0.041283   0.032866   0.003317
    29  F    0.000049   0.023228  -0.000094   0.091701  -0.096332   0.000949
    30  F   -0.000011   0.042350   0.000735  -0.134323   0.023705   0.004524
              19         20         21         22         23         24
     1  C   -0.306286  -0.008168   0.030259  -0.002185  -0.001372   0.003219
     2  C    0.048449  -0.190124   0.090040  -0.001680   0.001781   0.011856
     3  C    0.046811  -0.117328  -0.018073  -0.007085   0.002217  -0.000826
     4  C   -0.085500   0.027837  -0.038553   0.005717  -0.013120   0.000520
     5  C    0.041353   0.009468   0.031906   0.009810  -0.003497   0.003775
     6  C    0.023022  -0.129132  -0.071745  -0.042706   0.019346  -0.007227
     7  C    0.007583   0.067606  -0.236609   0.027056  -0.009512  -0.007776
     8  H    0.000293   0.000456  -0.000849   0.000098  -0.000088  -0.000117
     9  C   -0.022105  -0.344627  -0.150946   0.001031   0.040772  -0.012173
    10  H    0.000299  -0.000423   0.000599   0.000374   0.000001   0.000640
    11  H   -0.000757  -0.027965   0.012877  -0.008993   0.005783  -0.011638
    12  C    0.122019  -0.032729   0.020716  -0.000942   0.001427   0.000609
    13  H    0.001043   0.000077   0.000049   0.000005   0.000006   0.000008
    14  C    0.036293  -0.018834  -0.001458  -0.000036  -0.000313   0.000242
    15  H   -0.000017  -0.000246   0.000051  -0.000003   0.000004  -0.000006
    16  C   -0.108404   0.130089  -0.007250   0.001613  -0.002834  -0.001404
    17  C    0.575251   0.144770  -0.024889   0.004097  -0.004358  -0.003820
    18  H   -0.034036   0.001915  -0.000160   0.000021  -0.000044   0.000004
    19  B    3.653081   0.004124  -0.000384  -0.000148  -0.000596  -0.000198
    20  N    0.004124   7.088105   0.313452  -0.042114  -0.061036  -0.048894
    21  C   -0.000384   0.313452   5.374324   0.410721   0.397643   0.420354
    22  H   -0.000148  -0.042114   0.410721   0.579910  -0.046080  -0.048666
    23  H   -0.000596  -0.061036   0.397643  -0.046080   0.501835  -0.011045
    24  H   -0.000198  -0.048894   0.420354  -0.048666  -0.011045   0.536497
    25  C    0.031642   0.256261  -0.174561  -0.010554  -0.003750   0.018362
    26  H   -0.004906  -0.034152  -0.018616   0.005903   0.000497  -0.004074
    27  H    0.007069  -0.097674   0.015021   0.010459  -0.004830   0.002643
    28  H   -0.033666  -0.069376  -0.003310  -0.004282   0.007716  -0.003523
    29  F    0.401542  -0.006664   0.000566  -0.000364  -0.001427   0.000612
    30  F    0.343797  -0.000158  -0.000021   0.000000   0.000018  -0.000023
              25         26         27         28         29         30
     1  C    0.124275  -0.081068   0.062289   0.081817  -0.047386   0.059488
     2  C    0.000331  -0.032004   0.049030  -0.062104   0.027683   0.011750
     3  C   -0.030828  -0.012447   0.013774  -0.023537   0.021488   0.010166
     4  C   -0.066373   0.015180  -0.025265   0.112662  -0.060045   0.005108
     5  C    0.022634  -0.001957   0.010806  -0.037935   0.001879   0.001310
     6  C   -0.050275   0.002305  -0.003433   0.047881   0.008873   0.006459
     7  C    0.013736   0.013948  -0.021634  -0.008229  -0.000414   0.000184
     8  H    0.000583   0.000056  -0.000008  -0.000419  -0.000037  -0.000019
     9  C   -0.121251   0.034324  -0.062553  -0.005401   0.008401   0.001665
    10  H    0.000921   0.000015  -0.000355   0.000002   0.000012   0.000007
    11  H   -0.010718  -0.000129  -0.000934   0.000088  -0.000229   0.000023
    12  C    0.021500  -0.007009   0.008275  -0.041407   0.006920   0.007885
    13  H    0.000533  -0.000061   0.000082  -0.000358   0.000049  -0.000011
    14  C    0.010903  -0.003719   0.004279   0.007391   0.023228   0.042350
    15  H   -0.000058  -0.000023   0.000036  -0.000002  -0.000094   0.000735
    16  C   -0.115392   0.048594  -0.032975   0.041283   0.091701  -0.134323
    17  C   -0.107445   0.058734  -0.048850   0.032866  -0.096332   0.023705
    18  H   -0.002272   0.000140  -0.000350   0.003317   0.000949   0.004524
    19  B    0.031642  -0.004906   0.007069  -0.033666   0.401542   0.343797
    20  N    0.256261  -0.034152  -0.097674  -0.069376  -0.006664  -0.000158
    21  C   -0.174561  -0.018616   0.015021  -0.003310   0.000566  -0.000021
    22  H   -0.010554   0.005903   0.010459  -0.004282  -0.000364   0.000000
    23  H   -0.003750   0.000497  -0.004830   0.007716  -0.001427   0.000018
    24  H    0.018362  -0.004074   0.002643  -0.003523   0.000612  -0.000023
    25  C    5.498697   0.375490   0.456342   0.278713   0.042777  -0.001033
    26  H    0.375490   0.545184  -0.067594  -0.015291  -0.016056  -0.000324
    27  H    0.456342  -0.067594   0.599215  -0.068875   0.008622   0.000007
    28  H    0.278713  -0.015291  -0.068875   0.743145  -0.021213  -0.005784
    29  F    0.042777  -0.016056   0.008622  -0.021213   8.658506  -0.066675
    30  F   -0.001033  -0.000324   0.000007  -0.005784  -0.066675   8.711076
 Mulliken charges:
               1
     1  C    0.408341
     2  C    0.333806
     3  C   -0.005483
     4  C   -0.253624
     5  C   -0.462913
     6  C   -0.285803
     7  C   -0.287649
     8  H    0.193161
     9  C    0.059203
    10  H    0.238885
    11  H    0.204558
    12  C   -0.340152
    13  H    0.214588
    14  C   -0.273631
    15  H    0.233523
    16  C   -0.196708
    17  C   -0.558848
    18  H    0.238814
    19  B    0.253334
    20  N    0.185484
    21  C   -0.371154
    22  H    0.159023
    23  H    0.184854
    24  H    0.162069
    25  C   -0.459191
    26  H    0.199060
    27  H    0.187381
    28  H    0.047830
    29  F    0.013128
    30  F   -0.021885
 Sum of Mulliken charges =  -0.00000
 Mulliken charges with hydrogens summed into heavy atoms:
               1
     1  C    0.408341
     2  C    0.333806
     3  C   -0.005483
     4  C   -0.253624
     5  C   -0.269751
     6  C   -0.285803
     7  C   -0.048765
     9  C    0.263761
    12  C   -0.125564
    14  C   -0.040108
    16  C    0.042106
    17  C   -0.558848
    19  B    0.253334
    20  N    0.185484
    21  C    0.134792
    25  C   -0.024919
    29  F    0.013128
    30  F   -0.021885
 Electronic spatial extent (au):  <R**2>=          10365.1725
 Charge=              0.0000 electrons
 Dipole moment (field-independent basis, Debye):
    X=             -1.3668    Y=              1.7937    Z=             -1.0528  Tot=              2.4888
 Quadrupole moment (field-independent basis, Debye-Ang):
   XX=           -111.1588   YY=            -82.9642   ZZ=            -95.7442
   XY=             -4.1037   XZ=             -7.4629   YZ=              5.2071
 Traceless Quadrupole moment (field-independent basis, Debye-Ang):
   XX=            -14.5364   YY=             13.6582   ZZ=              0.8782
   XY=             -4.1037   XZ=             -7.4629   YZ=              5.2071
 Octapole moment (field-independent basis, Debye-Ang**2):
  XXX=           -543.9066  YYY=           -841.8444  ZZZ=           -117.3236  XYY=           -173.3432
  XXY=           -370.6369  XXZ=            -42.9564  XZZ=           -175.2706  YZZ=           -290.4316
  YYZ=             -1.6486  XYZ=             -5.1048
 Hexadecapole moment (field-independent basis, Debye-Ang**3):
 XXXX=          -2221.8153 YYYY=          -8323.2388 ZZZZ=          -2164.5657 XXXY=          -1432.2690
 XXXZ=            -99.3190 YYYX=          -1251.7025 YYYZ=           -198.5826 ZZZX=           -195.1481
 ZZZY=           -375.5018 XXYY=          -2113.0812 XXZZ=           -786.9025 YYZZ=          -1730.0754
 XXYZ=           -127.8658 YYXZ=            -38.8375 ZZXY=           -414.6089
 N-N= 1.242440455888D+03 E-N=-4.401833230137D+03  KE= 8.168914454822D+02
 Breneman (CHELPG) radii used.
 Generate Potential Derived Charges using the Breneman model, NDens= 1.
 Grid spacing= 0.300 Box extension= 2.800
 NStep X,Y,Z=   32     47     45   Total possible points=       67680
 Number of Points to Fit=   17903

 **********************************************************************

            Electrostatic Properties Using The SCF Density.

 **********************************************************************

       Atomic Center    1 is at   1.877801  2.472741 -0.159790
       Atomic Center    2 is at   1.829211  2.539468 -1.576939
       Atomic Center    3 is at   1.545838  4.013897 -1.495039
       Atomic Center    4 is at   1.532193  3.938977 -0.085458
       Atomic Center    5 is at   1.385578  5.178465 -2.193000
       Atomic Center    6 is at   1.263011  5.037682  0.714167
       Atomic Center    7 is at   1.179034  6.319462 -1.389821
       Atomic Center    8 is at   1.416035  5.242585 -3.273102
       Atomic Center    9 is at   1.111240  6.255697 -0.009059
       Atomic Center   10 is at   1.044868  7.284660 -1.866289
       Atomic Center   11 is at   0.913227  7.171289  0.533301
       Atomic Center   12 is at   2.041696  1.456883 -2.375225
       Atomic Center   13 is at   2.009271  1.502544 -3.457337
       Atomic Center   14 is at   2.320327  0.236922 -1.703959
       Atomic Center   15 is at   2.486290 -0.661585 -2.287188
       Atomic Center   16 is at   2.406051  0.174375 -0.332006
       Atomic Center   17 is at   2.210202  1.315695  0.511548
       Atomic Center   18 is at   2.649077 -0.774517  0.133493
       Atomic Center   19 is at   2.503583  1.201079  2.018817
       Atomic Center   20 is at   1.144524  4.958706  2.097311
       Atomic Center   21 is at   1.064147  6.193769  2.850063
       Atomic Center   22 is at   0.104794  6.718827  2.714371
       Atomic Center   23 is at   1.173410  5.959545  3.910630
       Atomic Center   24 is at   1.877597  6.864840  2.570017
       Atomic Center   25 is at   0.250252  3.929687  2.608005
       Atomic Center   26 is at   0.524058  3.676704  3.633737
       Atomic Center   27 is at  -0.796170  4.271588  2.593939
       Atomic Center   28 is at   0.315430  3.026705  2.003866
       Atomic Center   29 is at   2.712575  2.252722  2.804198
       Atomic Center   30 is at   2.621761  0.010889  2.611409
   17903 points will be used for fitting atomic charges
 Fitting point charges to electrostatic potential
 Charges from ESP fit, RMS=   0.00452 RRMS=   0.37256:
 ESP charges:
               1
     1  C    0.241659
     2  C   -0.003565
     3  C    0.116354
     4  C   -0.272302
     5  C   -0.220741
     6  C    0.370171
     7  C   -0.077580
     8  H    0.132173
     9  C   -0.245734
    10  H    0.110789
    11  H    0.132851
    12  C   -0.130648
    13  H    0.126424
    14  C   -0.115689
    15  H    0.102289
    16  C   -0.061251
    17  C   -0.383267
    18  H    0.089416
    19  B    0.882448
    20  N   -0.335558
    21  C   -0.108748
    22  H    0.063783
    23  H    0.091187
    24  H    0.065527
    25  C    0.148437
    26  H    0.056778
    27  H   -0.016457
    28  H   -0.025286
    29  F   -0.380163
    30  F   -0.353295
 Sum of ESP charges =  -0.00000
 ESP charges with hydrogens summed into heavy atoms:
               1
     1  C    0.241659
     2  C   -0.003565
     3  C    0.116354
     4  C   -0.272302
     5  C   -0.088568
     6  C    0.370171
     7  C    0.033209
     9  C   -0.112883
    12  C   -0.004224
    14  C   -0.013400
    16  C    0.028165
    17  C   -0.383267
    19  B    0.882448
    20  N   -0.335558
    21  C    0.111749
    25  C    0.163472
    29  F   -0.380163
    30  F   -0.353295
 Charge=  -0.00000 Dipole=    -1.4043     1.8222    -1.1707 Tot=     2.5813
 -----------------------------------------------------------------

              Electrostatic Properties (Atomic Units)

 -----------------------------------------------------------------
    Center     Electric         -------- Electric Field --------
               Potential          X             Y             Z
 -----------------------------------------------------------------
    1 Atom    -14.745694
    2 Atom    -14.758004
    3 Atom    -14.758445
    4 Atom    -14.764771
    5 Atom    -14.770534
    6 Atom    -14.722410
    7 Atom    -14.763375
    8 Atom     -1.095970
    9 Atom    -14.768734
   10 Atom     -1.099491
   11 Atom     -1.096705
   12 Atom    -14.758632
   13 Atom     -1.089210
   14 Atom    -14.765852
   15 Atom     -1.099410
   16 Atom    -14.763476
   17 Atom    -14.771518
   18 Atom     -1.103242
   19 Atom    -11.355311
   20 Atom    -18.372366
   21 Atom    -14.742202
   22 Atom     -1.108549
   23 Atom     -1.104585
   24 Atom     -1.104556
   25 Atom    -14.745150
   26 Atom     -1.112589
   27 Atom     -1.113622
   28 Atom     -1.107287
   29 Atom    -26.594489
   30 Atom    -26.593944
 -----------------------------------------------------------------
 Unable to Open any file for archive entry.
 1\1\GINC-IRENE5274\SP\RwB97XD\GenECP\C14H12B1F2N1\PENASFRA\10-Apr-2024
 \0\\# wb97xd/genecp scrf=(solvent=toluene,pcm) nosymm pop=(chelpg) scf
 cyc=300\\f_biphenylene_chelpg\\0,1\C,0,1.877801,2.472741,-0.15979\C,0,
 1.829211,2.539468,-1.576939\C,0,1.545838,4.013897,-1.495039\C,0,1.5321
 93,3.938977,-0.085458\C,0,1.385578,5.178465,-2.193\C,0,1.263011,5.0376
 82,0.714167\C,0,1.179034,6.319462,-1.389821\H,0,1.416035,5.242585,-3.2
 73102\C,0,1.11124,6.255697,-0.009059\H,0,1.044868,7.28466,-1.866289\H,
 0,0.913227,7.171289,0.533301\C,0,2.041696,1.456883,-2.375225\H,0,2.009
 271,1.502544,-3.457337\C,0,2.320327,0.236922,-1.703959\H,0,2.48629,-0.
 661585,-2.287188\C,0,2.406051,0.174375,-0.332006\C,0,2.210202,1.315695
 ,0.511548\H,0,2.649077,-0.774517,0.133493\B,0,2.503583,1.201079,2.0188
 17\N,0,1.144524,4.958706,2.097311\C,0,1.064147,6.193769,2.850063\H,0,0
 .104794,6.718827,2.714371\H,0,1.17341,5.959545,3.91063\H,0,1.877597,6.
 86484,2.570017\C,0,0.250252,3.929687,2.608005\H,0,0.524058,3.676704,3.
 633737\H,0,-0.79617,4.271588,2.593939\H,0,0.31543,3.026705,2.003866\F,
 0,2.712575,2.252722,2.804198\F,0,2.621761,0.010889,2.611409\\Version=A
 S64L-G16RevC.02\HF=-820.0145906\RMSD=6.484e-09\Dipole=-0.5377335,0.705
 7147,-0.4141904\Quadrupole=-10.8074805,10.1545319,0.6529486,-3.0510323
 ,-5.5484615,3.8713378\PG=C01 [X(C14H12B1F2N1)]\\@
 The archive entry for this job was punched.


 SCIENCE AND PEACE WILL TRIUMPH OVER IGNORANCE AND WAR

                          -- PASTEUR
 Job cpu time:       0 days  1 hours 14 minutes 47.4 seconds.
 Elapsed time:       0 days  0 hours  0 minutes 46.6 seconds.
 File lengths (MBytes):  RWF=    215 Int=      0 D2E=      0 Chk=     15 Scr=      1
 Normal termination of Gaussian 16 at Wed Apr 10 17:05:26 2024.
