 Entering Gaussian System, Link 0=/ccc/products/gaussian-16-C.02/system/default/g16/g16
 Input=f_cnmetriazole_chelpg.gjf
 Output=f_cnmetriazole_chelpg.log
 Initial command:
 /ccc/products/gaussian-16-C.02/system/default/g16/l1.exe "/ccc/scratch/cont003/gen7343/penasfra/flp/b-n_flp/f_cnmetriazole/Reactant/Gau-412025.inp" -scrdir="/ccc/scratch/cont003/gen7343/penasfra/flp/b-n_flp/f_cnmetriazole/Reactant/"
 Entering Link 1 = /ccc/products/gaussian-16-C.02/system/default/g16/l1.exe PID=    412074.
  
 Copyright (c) 1988-2021, Gaussian, Inc.  All Rights Reserved.
  
 This is part of the Gaussian(R) 16 program.  It is based on
 the Gaussian(R) 09 system (copyright 2009, Gaussian, Inc.),
 the Gaussian(R) 03 system (copyright 2003, Gaussian, Inc.),
 the Gaussian(R) 98 system (copyright 1998, Gaussian, Inc.),
 the Gaussian(R) 94 system (copyright 1995, Gaussian, Inc.),
 the Gaussian 92(TM) system (copyright 1992, Gaussian, Inc.),
 the Gaussian 90(TM) system (copyright 1990, Gaussian, Inc.),
 the Gaussian 88(TM) system (copyright 1988, Gaussian, Inc.),
 the Gaussian 86(TM) system (copyright 1986, Carnegie Mellon
 University), and the Gaussian 82(TM) system (copyright 1983,
 Carnegie Mellon University). Gaussian is a federally registered
 trademark of Gaussian, Inc.
  
 This software contains proprietary and confidential information,
 including trade secrets, belonging to Gaussian, Inc.
  
 This software is provided under written license and may be
 used, copied, transmitted, or stored only in accord with that
 written license.
  
 The following legend is applicable only to US Government
 contracts under FAR:
  
                    RESTRICTED RIGHTS LEGEND
  
 Use, reproduction and disclosure by the US Government is
 subject to restrictions as set forth in subparagraphs (a)
 and (c) of the Commercial Computer Software - Restricted
 Rights clause in FAR 52.227-19.
  
 Gaussian, Inc.
 340 Quinnipiac St., Bldg. 40, Wallingford CT 06492
  
  
 ---------------------------------------------------------------
 Warning -- This program may not be used in any manner that
 competes with the business of Gaussian, Inc. or will provide
 assistance to any competitor of Gaussian, Inc.  The licensee
 of this program is prohibited from giving any competitor of
 Gaussian, Inc. access to this program.  By using this program,
 the user acknowledges that Gaussian, Inc. is engaged in the
 business of creating and licensing software in the field of
 computational chemistry and represents and warrants to the
 licensee that it is not a competitor of Gaussian, Inc. and that
 it will not use this program in any manner prohibited above.
 ---------------------------------------------------------------
  

 Cite this work as:
 Gaussian 16, Revision C.02,
 M. J. Frisch, G. W. Trucks, H. B. Schlegel, G. E. Scuseria, 
 M. A. Robb, J. R. Cheeseman, G. Scalmani, V. Barone, 
 G. A. Petersson, H. Nakatsuji, X. Li, M. Caricato, A. V. Marenich, 
 J. Bloino, B. G. Janesko, R. Gomperts, B. Mennucci, H. P. Hratchian, 
 J. V. Ortiz, A. F. Izmaylov, J. L. Sonnenberg, D. Williams-Young, 
 F. Ding, F. Lipparini, F. Egidi, J. Goings, B. Peng, A. Petrone, 
 T. Henderson, D. Ranasinghe, V. G. Zakrzewski, J. Gao, N. Rega, 
 G. Zheng, W. Liang, M. Hada, M. Ehara, K. Toyota, R. Fukuda, 
 J. Hasegawa, M. Ishida, T. Nakajima, Y. Honda, O. Kitao, H. Nakai, 
 T. Vreven, K. Throssell, J. A. Montgomery, Jr., J. E. Peralta, 
 F. Ogliaro, M. J. Bearpark, J. J. Heyd, E. N. Brothers, K. N. Kudin, 
 V. N. Staroverov, T. A. Keith, R. Kobayashi, J. Normand, 
 K. Raghavachari, A. P. Rendell, J. C. Burant, S. S. Iyengar, 
 J. Tomasi, M. Cossi, J. M. Millam, M. Klene, C. Adamo, R. Cammi, 
 J. W. Ochterski, R. L. Martin, K. Morokuma, O. Farkas, 
 J. B. Foresman, and D. J. Fox, Gaussian, Inc., Wallingford CT, 2019.
 
 ******************************************
 Gaussian 16:  AS64L-G16RevC.02  7-Dec-2021
                 9-Apr-2024 
 ******************************************
 %nprocshared=128
 Will use up to  128 processors via shared memory.
 %mem=30GB
 %chk=f_cnmetriazole_chelpg.chk
 ----------------------------------------------------------------------
 # wb97xd/genecp scrf=(solvent=toluene,pcm) nosymm pop=(chelpg) scfcyc=
 300
 ----------------------------------------------------------------------
 1/38=1,172=1/1;
 2/12=2,15=1,17=6,18=5,40=1/2;
 3/5=7,11=2,16=1,17=8,25=1,30=1,70=2201,72=13,74=-58/1,2,3;
 4//1;
 5/5=2,7=300,38=5,53=13/2;
 6/7=2,8=2,9=2,10=2,15=8,20=3,28=1/1,2;
 99/5=1,9=1/99;
 ---------------------
 f_cnmetriazole_chelpg
 ---------------------
 Symbolic Z-matrix:
 Charge =  0 Multiplicity = 1
 C                     2.66833   1.67564   1.17392 
 C                     3.14869   0.43547   0.78351 
 N                     2.03466   2.16752   0.08886 
 N                     2.11028   1.29414  -0.91765 
 N                     2.77156   0.26136  -0.51376 
 B                     3.95678  -0.61025   1.58325 
 C                     1.332     3.43197  -0.06304 
 H                     1.02181   3.50189  -1.10251 
 H                     0.45952   3.44966   0.58976 
 H                     2.00155   4.25512   0.18413 
 F                     4.33434  -1.75259   1.04339 
 F                     4.29034  -0.37691   2.84423 
 C                     2.75165   2.38698   2.39626 
 N                     2.8081    2.98058   3.38028 
 
                          Input orientation:                          
 ---------------------------------------------------------------------
 Center     Atomic      Atomic             Coordinates (Angstroms)
 Number     Number       Type             X           Y           Z
 ---------------------------------------------------------------------
      1          6           0        2.668328    1.675639    1.173917
      2          6           0        3.148688    0.435471    0.783508
      3          7           0        2.034664    2.167524    0.088855
      4          7           0        2.110284    1.294136   -0.917645
      5          7           0        2.771564    0.261357   -0.513764
      6          5           0        3.956784   -0.610245    1.583247
      7          6           0        1.331998    3.431968   -0.063040
      8          1           0        1.021814    3.501885   -1.102512
      9          1           0        0.459522    3.449661    0.589757
     10          1           0        2.001549    4.255120    0.184125
     11          9           0        4.334340   -1.752593    1.043391
     12          9           0        4.290340   -0.376911    2.844228
     13          6           0        2.751646    2.386978    2.396257
     14          7           0        2.808099    2.980575    3.380281
 ---------------------------------------------------------------------
                    Distance matrix (angstroms):
                    1          2          3          4          5
     1  C    0.000000
     2  C    1.386067   0.000000
     3  N    1.349385   2.173384   0.000000
     4  N    2.198088   2.170141   1.334754   0.000000
     5  N    2.204341   1.362150   2.130644   1.291140   0.000000
     6  B    2.655736   1.544708   3.693745   3.645640   2.561619
     7  C    2.529927   3.604997   1.454521   2.430310   3.511165
     8  H    3.350867   4.181335   2.055660   2.468420   3.729514
     9  H    2.892615   4.044069   2.091853   3.105409   4.090059
    10  H    2.842183   4.032977   2.090031   3.161194   4.126756
    11  F    3.813844   2.502186   4.644025   4.251429   2.987138
    12  F    3.103840   2.491967   4.376563   4.657975   3.740344
    13  C    1.416707   2.562612   2.426175   3.547900   3.603732
    14  N    2.567184   3.651956   3.477462   4.669389   4.749639
                    6          7          8          9         10
     6  B    0.000000
     7  C    5.093059   0.000000
     8  H    5.721622   1.087016   0.000000
     9  H    5.449835   1.089803   1.784005   0.000000
    10  H    5.426994   1.089481   1.784006   1.786379   0.000000
    11  F    1.318693   6.092448   6.571702   6.502572   6.501759
    12  F    1.325058   5.631301   6.426903   5.865190   5.811233
    13  C    3.331169   3.025813   4.059153   3.105893   2.991008
    14  N    4.176457   3.773472   4.853660   3.677347   3.534176
                   11         12         13         14
    11  F    0.000000
    12  F    2.266595   0.000000
    13  C    4.633704   3.194893   0.000000
    14  N    5.494847   3.709057   1.150586   0.000000
 Symmetry turned off by external request.
 Stoichiometry    C4H3BF2N4
 Framework group  C1[X(C4H3BF2N4)]
 Deg. of freedom    36
 Full point group                 C1      NOp   1
 Rotational constants (GHZ):           1.7004328           0.9108145           0.5953686
 General basis read from cards:  (5D, 7F)
 ======================================================================================================
                                       Pseudopotential Parameters
 ======================================================================================================
  Center     Atomic      Valence      Angular      Power
  Number     Number     Electrons     Momentum     of R      Exponent        Coefficient   SO-Coeffient
 ======================================================================================================
    1          6
                                   No pseudopotential on this center.
    2          6
                                   No pseudopotential on this center.
    3          7
                                   No pseudopotential on this center.
    4          7
                                   No pseudopotential on this center.
    5          7
                                   No pseudopotential on this center.
    6          5
                                   No pseudopotential on this center.
    7          6
                                   No pseudopotential on this center.
    8          1
                                   No pseudopotential on this center.
    9          1
                                   No pseudopotential on this center.
   10          1
                                   No pseudopotential on this center.
   11          9
                                   No pseudopotential on this center.
   12          9
                                   No pseudopotential on this center.
   13          6
                                   No pseudopotential on this center.
   14          7
                                   No pseudopotential on this center.
 ======================================================================================================
   263 basis functions,   423 primitive gaussians,   274 cartesian basis functions
    39 alpha electrons       39 beta electrons
       nuclear repulsion energy       558.6752443712 Hartrees.
 NAtoms=   14 NActive=   14 NUniq=   14 SFac= 1.00D+00 NAtFMM=   60 NAOKFM=F Big=F
 Integral buffers will be    131072 words long.
 Raffenetti 2 integral format.
 Two-electron integral symmetry is turned off.
 Nuclear repulsion after empirical dispersion term =      558.6683718666 Hartrees.
 ------------------------------------------------------------------------------
 Polarizable Continuum Model (PCM)
 =================================
 Model                : PCM.
 Atomic radii         : UFF (Universal Force Field).
 Polarization charges : Total charges.
 Charge compensation  : None.
 Solution method      : On-the-fly selection.
 Cavity type          : Scaled VdW (van der Waals Surface) (Alpha=1.100).
 Cavity algorithm     : GePol (No added spheres)
                        Default sphere list used, NSphG=   14.
                        Lebedev-Laikov grids with approx.  5.0 points / Ang**2.
                        Smoothing algorithm: York/Karplus (Gamma=1.0000).
                        Polarization charges: spherical gaussians, with
                                              point-specific exponents (IZeta= 3).
                        Self-potential: point-specific (ISelfS= 7).
                        Self-field    : sphere-specific E.n sum rule (ISelfD= 2).
 Solvent              : Toluene, Eps=   2.374100 Eps(inf)=   2.238315
 ------------------------------------------------------------------------------
 Spheres list:
 ISph  on   Nord     Re0    Alpha      Xe            Ye            Ze
    1   C      1    1.9255  1.100      2.668328      1.675639      1.173917
    2   C      2    1.9255  1.100      3.148688      0.435471      0.783508
    3   N      3    1.8300  1.100      2.034664      2.167524      0.088855
    4   N      4    1.8300  1.100      2.110284      1.294136     -0.917645
    5   N      5    1.8300  1.100      2.771564      0.261357     -0.513764
    6   B      6    2.0415  1.100      3.956784     -0.610245      1.583247
    7   C      7    1.9255  1.100      1.331998      3.431968     -0.063040
    8   H      8    1.4430  1.100      1.021814      3.501885     -1.102512
    9   H      9    1.4430  1.100      0.459522      3.449661      0.589757
   10   H     10    1.4430  1.100      2.001549      4.255120      0.184125
   11   F     11    1.6820  1.100      4.334340     -1.752593      1.043391
   12   F     12    1.6820  1.100      4.290340     -0.376911      2.844228
   13   C     13    1.9255  1.100      2.751646      2.386978      2.396257
   14   N     14    1.8300  1.100      2.808099      2.980575      3.380281
 ------------------------------------------------------------------------------
 One-electron integrals computed using PRISM.
   1 Symmetry operations used in ECPInt.
 ECPInt:  NShTT=    3321 NPrTT=   13737 LenC2=    3178 LenP2D=    9287.
 LDataN:  DoStor=T MaxTD1= 4 Len=   56
 NBasis=   263 RedAO= T EigKep=  3.53D-06  NBF=   263
 NBsUse=   263 1.00D-06 EigRej= -1.00D+00 NBFU=   263
 ExpMin= 3.15D-02 ExpMax= 1.14D+04 ExpMxC= 1.72D+03 IAcc=3 IRadAn=         5 AccDes= 0.00D+00
 Harris functional with IExCor= 4639 and IRadAn=       5 diagonalized for initial guess.
 HarFok:  IExCor= 4639 AccDes= 0.00D+00 IRadAn=         5 IDoV= 1 UseB2=F ITyADJ=14
 ICtDFT=  3500011 ScaDFX=  1.000000  1.000000  1.000000  1.000000
 FoFCou: FMM=F IPFlag=           0 FMFlag=      100000 FMFlg1=           0
         NFxFlg=           0 DoJE=T BraDBF=F KetDBF=T FulRan=T
         wScrn=  0.000000 ICntrl=       500 IOpCl=  0 I1Cent=   200000004 NGrid=           0
         NMat0=    1 NMatS0=      1 NMatT0=    0 NMatD0=    1 NMtDS0=    0 NMtDT0=    0
 Symmetry not used in FoFCou.
 Requested convergence on RMS density matrix=1.00D-08 within 300 cycles.
 Requested convergence on MAX density matrix=1.00D-06.
 Requested convergence on             energy=1.00D-06.
 No special actions if energy rises.
 Inv3:  Mode=1 IEnd=     6777027.
 Iteration    1 A*A^-1 deviation from unit magnitude is 3.22D-15 for   1475.
 Iteration    1 A*A^-1 deviation from orthogonality  is 2.91D-15 for   1497   1335.
 Iteration    1 A^-1*A deviation from unit magnitude is 3.00D-15 for   1491.
 Iteration    1 A^-1*A deviation from orthogonality  is 1.83D-15 for   1486   1327.
 Error on total polarization charges =  0.00818
 SCF Done:  E(RwB97XD) =  -597.821839910     A.U. after   15 cycles
            NFock= 15  Conv=0.81D-08     -V/T= 2.0032

 **********************************************************************

            Population analysis using the SCF Density.

 **********************************************************************

 Alpha  occ. eigenvalues --  -24.84132 -24.83930 -14.57578 -14.53389 -14.49597
 Alpha  occ. eigenvalues --  -14.47642 -10.40344 -10.36818 -10.35869 -10.34632
 Alpha  occ. eigenvalues --   -6.98566  -1.36326  -1.33457  -1.25820  -1.07221
 Alpha  occ. eigenvalues --   -1.05093  -0.96609  -0.87562  -0.80342  -0.76491
 Alpha  occ. eigenvalues --   -0.69975  -0.68569  -0.64719  -0.63307  -0.62969
 Alpha  occ. eigenvalues --   -0.60131  -0.59649  -0.54613  -0.54078  -0.53915
 Alpha  occ. eigenvalues --   -0.53191  -0.51610  -0.49646  -0.49540  -0.47204
 Alpha  occ. eigenvalues --   -0.45558  -0.41143  -0.39315  -0.38421
 Alpha virt. eigenvalues --   -0.02284   0.02606   0.03700   0.05221   0.05529
 Alpha virt. eigenvalues --    0.06905   0.07110   0.08109   0.08258   0.08496
 Alpha virt. eigenvalues --    0.10622   0.11253   0.12073   0.12795   0.13569
 Alpha virt. eigenvalues --    0.14128   0.14599   0.15611   0.16316   0.16822
 Alpha virt. eigenvalues --    0.17242   0.18435   0.18870   0.19561   0.19704
 Alpha virt. eigenvalues --    0.20259   0.20761   0.22270   0.23164   0.23536
 Alpha virt. eigenvalues --    0.23815   0.24928   0.25154   0.26791   0.27330
 Alpha virt. eigenvalues --    0.28314   0.28436   0.29797   0.30248   0.30840
 Alpha virt. eigenvalues --    0.32369   0.32711   0.33369   0.33689   0.34534
 Alpha virt. eigenvalues --    0.35151   0.35920   0.36336   0.36626   0.37440
 Alpha virt. eigenvalues --    0.37877   0.38360   0.39177   0.41748   0.42169
 Alpha virt. eigenvalues --    0.42866   0.44347   0.45046   0.45353   0.47457
 Alpha virt. eigenvalues --    0.50768   0.51731   0.52355   0.52687   0.53872
 Alpha virt. eigenvalues --    0.57016   0.58347   0.60637   0.61438   0.63334
 Alpha virt. eigenvalues --    0.65960   0.66559   0.68431   0.68936   0.69342
 Alpha virt. eigenvalues --    0.70727   0.73324   0.74606   0.76536   0.78941
 Alpha virt. eigenvalues --    0.82408   0.84892   0.85622   0.86516   0.89257
 Alpha virt. eigenvalues --    0.89902   0.91573   0.92742   0.93416   0.94329
 Alpha virt. eigenvalues --    0.95644   0.98362   0.99166   1.00444   1.00843
 Alpha virt. eigenvalues --    1.03373   1.05263   1.05827   1.08150   1.09907
 Alpha virt. eigenvalues --    1.11075   1.17457   1.21131   1.23594   1.27283
 Alpha virt. eigenvalues --    1.28158   1.29246   1.32145   1.34491   1.36076
 Alpha virt. eigenvalues --    1.36320   1.38393   1.40155   1.41309   1.42695
 Alpha virt. eigenvalues --    1.45636   1.49026   1.49397   1.52117   1.53857
 Alpha virt. eigenvalues --    1.55190   1.56603   1.60750   1.61565   1.62827
 Alpha virt. eigenvalues --    1.64935   1.67494   1.68270   1.70450   1.73189
 Alpha virt. eigenvalues --    1.77131   1.79540   1.84485   1.85652   1.91079
 Alpha virt. eigenvalues --    1.95332   1.97236   2.01730   2.07232   2.08621
 Alpha virt. eigenvalues --    2.09657   2.14037   2.14594   2.15907   2.17905
 Alpha virt. eigenvalues --    2.19409   2.21606   2.23623   2.34111   2.34611
 Alpha virt. eigenvalues --    2.37798   2.44750   2.45592   2.49436   2.53303
 Alpha virt. eigenvalues --    2.59183   2.61074   2.61664   2.64918   2.67853
 Alpha virt. eigenvalues --    2.70488   2.73996   2.79639   2.80120   2.81986
 Alpha virt. eigenvalues --    2.83811   2.91669   2.94397   2.99315   3.02584
 Alpha virt. eigenvalues --    3.04824   3.05911   3.07959   3.10383   3.19394
 Alpha virt. eigenvalues --    3.20537   3.26121   3.31132   3.49089   3.59806
 Alpha virt. eigenvalues --    3.74378   3.76303   3.79105   3.82547   3.84834
 Alpha virt. eigenvalues --    3.86102   3.86251   3.90356   3.92705   4.00958
 Alpha virt. eigenvalues --    4.02668   4.04386   4.06800   4.07271   4.08217
 Alpha virt. eigenvalues --    4.11337   4.13078   4.14185   4.28282   4.36666
 Alpha virt. eigenvalues --    4.57073   4.64990   4.69974   4.72862   4.90922
 Alpha virt. eigenvalues --    5.08448   5.73980   6.36473   6.38432   6.40336
 Alpha virt. eigenvalues --    6.49665   6.52491   6.74278  14.75938  23.80697
 Alpha virt. eigenvalues --   24.04184  24.15201  24.62071  35.52221  35.62488
 Alpha virt. eigenvalues --   35.76103  36.00671  66.91345  66.92595
          Condensed to atoms (all electrons):
               1          2          3          4          5          6
     1  C   20.189918  -9.253728  -1.363100   1.145043  -0.381481  -0.074148
     2  C   -9.253728  16.367596   0.870492  -0.913564   0.516925   0.445845
     3  N   -1.363100   0.870492   7.634720  -0.524395   0.082075   0.026283
     4  N    1.145043  -0.913564  -0.524395   7.133486   0.178553   0.001642
     5  N   -0.381481   0.516925   0.082075   0.178553   6.651754  -0.087557
     6  B   -0.074148   0.445845   0.026283   0.001642  -0.087557   3.600218
     7  C    0.106596  -0.095561   0.142880  -0.009724   0.026561   0.008318
     8  H    0.032699  -0.014932  -0.086719   0.049117  -0.003817  -0.001368
     9  H   -0.010770   0.032454  -0.005698  -0.028816   0.002065  -0.000061
    10  H    0.005520   0.041488  -0.011198  -0.023753   0.001922  -0.000352
    11  F   -0.005319   0.007611   0.006196  -0.003050   0.012739   0.337580
    12  F   -0.077391  -0.022499  -0.008136   0.012192  -0.000718   0.434972
    13  C   -5.857755  -1.227843   0.052302  -0.067334   0.113659  -0.056812
    14  N    0.656438  -0.032454  -0.035893   0.025878  -0.004573  -0.002735
               7          8          9         10         11         12
     1  C    0.106596   0.032699  -0.010770   0.005520  -0.005319  -0.077391
     2  C   -0.095561  -0.014932   0.032454   0.041488   0.007611  -0.022499
     3  N    0.142880  -0.086719  -0.005698  -0.011198   0.006196  -0.008136
     4  N   -0.009724   0.049117  -0.028816  -0.023753  -0.003050   0.012192
     5  N    0.026561  -0.003817   0.002065   0.001922   0.012739  -0.000718
     6  B    0.008318  -0.001368  -0.000061  -0.000352   0.337580   0.434972
     7  C    5.249853   0.386827   0.401497   0.396771   0.000650   0.000714
     8  H    0.386827   0.446200  -0.018924  -0.020604   0.000177  -0.000042
     9  H    0.401497  -0.018924   0.492104  -0.053820   0.000025  -0.000101
    10  H    0.396771  -0.020604  -0.053820   0.507457   0.000061  -0.000018
    11  F    0.000650   0.000177   0.000025   0.000061   8.674119  -0.066367
    12  F    0.000714  -0.000042  -0.000101  -0.000018  -0.066367   8.649418
    13  C   -0.203841   0.014242  -0.039642  -0.060145   0.024999   0.084606
    14  N    0.011881  -0.000314  -0.001353  -0.000447  -0.001230  -0.003248
              13         14
     1  C   -5.857755   0.656438
     2  C   -1.227843  -0.032454
     3  N    0.052302  -0.035893
     4  N   -0.067334   0.025878
     5  N    0.113659  -0.004573
     6  B   -0.056812  -0.002735
     7  C   -0.203841   0.011881
     8  H    0.014242  -0.000314
     9  H   -0.039642  -0.001353
    10  H   -0.060145  -0.000447
    11  F    0.024999  -0.001230
    12  F    0.084606  -0.003248
    13  C   14.160030  -0.221914
    14  N   -0.221914   6.816662
 Mulliken charges:
               1
     1  C    0.887478
     2  C   -0.721832
     3  N    0.220189
     4  N    0.024725
     5  N   -0.108107
     6  B    0.368175
     7  C   -0.423423
     8  H    0.217457
     9  H    0.231040
    10  H    0.217119
    11  F    0.011810
    12  F   -0.003382
    13  C   -0.714552
    14  N   -0.206698
 Sum of Mulliken charges =  -0.00000
 Mulliken charges with hydrogens summed into heavy atoms:
               1
     1  C    0.887478
     2  C   -0.721832
     3  N    0.220189
     4  N    0.024725
     5  N   -0.108107
     6  B    0.368175
     7  C    0.242193
    11  F    0.011810
    12  F   -0.003382
    13  C   -0.714552
    14  N   -0.206698
 Electronic spatial extent (au):  <R**2>=           4719.1966
 Charge=             -0.0000 electrons
 Dipole moment (field-independent basis, Debye):
    X=             -2.1811    Y=              3.3891    Z=             -1.2891  Tot=              4.2314
 Quadrupole moment (field-independent basis, Debye-Ang):
   XX=            -69.0543   YY=            -52.5831   ZZ=            -78.7020
   XY=              4.2509   XZ=             -6.5567   YZ=             -9.8149
 Traceless Quadrupole moment (field-independent basis, Debye-Ang):
   XX=             -2.2745   YY=             14.1967   ZZ=            -11.9222
   XY=              4.2509   XZ=             -6.5567   YZ=             -9.8149
 Octapole moment (field-independent basis, Debye-Ang**2):
  XXX=           -544.7012  YYY=           -175.7299  ZZZ=           -251.1425  XYY=           -180.1126
  XXY=            -58.4910  XXZ=            -89.1577  XZZ=           -231.4092  YZZ=           -118.5045
  YYZ=           -100.3241  XYZ=            -26.7841
 Hexadecapole moment (field-independent basis, Debye-Ang**3):
 XXXX=          -3396.7406 YYYY=          -1341.2232 ZZZZ=          -1369.4987 XXXY=           -325.9662
 XXXZ=           -756.3577 YYYX=           -361.9518 YYYZ=           -351.4215 ZZZX=           -860.2057
 ZZZY=           -403.2155 XXYY=           -865.0752 XXZZ=           -934.2509 YYZZ=           -581.3106
 XXYZ=           -140.9887 YYXZ=           -327.1251 ZZXY=           -261.2994
 N-N= 5.586683718666D+02 E-N=-2.520753911095D+03  KE= 5.959336858320D+02
 Breneman (CHELPG) radii used.
 Generate Potential Derived Charges using the Breneman model, NDens= 1.
 Grid spacing= 0.300 Box extension= 2.800
 NStep X,Y,Z=   33     40     35   Total possible points=       46200
 Number of Points to Fit=   10675

 **********************************************************************

            Electrostatic Properties Using The SCF Density.

 **********************************************************************

       Atomic Center    1 is at   2.668328  1.675639  1.173917
       Atomic Center    2 is at   3.148688  0.435471  0.783508
       Atomic Center    3 is at   2.034664  2.167524  0.088855
       Atomic Center    4 is at   2.110284  1.294136 -0.917645
       Atomic Center    5 is at   2.771564  0.261357 -0.513764
       Atomic Center    6 is at   3.956784 -0.610245  1.583247
       Atomic Center    7 is at   1.331998  3.431968 -0.063040
       Atomic Center    8 is at   1.021814  3.501885 -1.102512
       Atomic Center    9 is at   0.459522  3.449661  0.589757
       Atomic Center   10 is at   2.001549  4.255120  0.184125
       Atomic Center   11 is at   4.334340 -1.752593  1.043391
       Atomic Center   12 is at   4.290340 -0.376911  2.844228
       Atomic Center   13 is at   2.751646  2.386978  2.396257
       Atomic Center   14 is at   2.808099  2.980575  3.380281
   10675 points will be used for fitting atomic charges
 Fitting point charges to electrostatic potential
 Charges from ESP fit, RMS=   0.00419 RRMS=   0.16508:
 ESP charges:
               1
     1  C   -0.131793
     2  C    0.031330
     3  N    0.484472
     4  N   -0.276618
     5  N   -0.290133
     6  B    0.778651
     7  C   -0.260531
     8  H    0.113467
     9  H    0.129320
    10  H    0.129049
    11  F   -0.325495
    12  F   -0.313204
    13  C    0.363583
    14  N   -0.432097
 Sum of ESP charges =   0.00000
 ESP charges with hydrogens summed into heavy atoms:
               1
     1  C   -0.131793
     2  C    0.031330
     3  N    0.484472
     4  N   -0.276618
     5  N   -0.290133
     6  B    0.778651
     7  C    0.111305
    11  F   -0.325495
    12  F   -0.313204
    13  C    0.363583
    14  N   -0.432097
 Charge=   0.00000 Dipole=    -2.1856     3.3663    -1.3443 Tot=     4.2328
 -----------------------------------------------------------------

              Electrostatic Properties (Atomic Units)

 -----------------------------------------------------------------
    Center     Electric         -------- Electric Field --------
               Potential          X             Y             Z
 -----------------------------------------------------------------
    1 Atom    -14.647579
    2 Atom    -14.713617
    3 Atom    -18.242870
    4 Atom    -18.309574
    5 Atom    -18.348686
    6 Atom    -11.321653
    7 Atom    -14.680025
    8 Atom     -1.043741
    9 Atom     -1.043906
   10 Atom     -1.042912
   11 Atom    -26.572903
   12 Atom    -26.567783
   13 Atom    -14.700349
   14 Atom    -18.377299
 -----------------------------------------------------------------
 Unable to Open any file for archive entry.
 1\1\GINC-IRENE5692\SP\RwB97XD\GenECP\C4H3B1F2N4\PENASFRA\09-Apr-2024\0
 \\# wb97xd/genecp scrf=(solvent=toluene,pcm) nosymm pop=(chelpg) scfcy
 c=300\\f_cnmetriazole_chelpg\\0,1\C,0,2.668328,1.675639,1.173917\C,0,3
 .148688,0.435471,0.783508\N,0,2.034664,2.167524,0.088855\N,0,2.110284,
 1.294136,-0.917645\N,0,2.771564,0.261357,-0.513764\B,0,3.956784,-0.610
 245,1.583247\C,0,1.331998,3.431968,-0.06304\H,0,1.021814,3.501885,-1.1
 02512\H,0,0.459522,3.449661,0.589757\H,0,2.001549,4.25512,0.184125\F,0
 ,4.33434,-1.752593,1.043391\F,0,4.29034,-0.376911,2.844228\C,0,2.75164
 6,2.386978,2.396257\N,0,2.808099,2.980575,3.380281\\Version=AS64L-G16R
 evC.02\HF=-597.8218399\RMSD=8.062e-09\Dipole=-0.8580981,1.3333709,-0.5
 071563\Quadrupole=-1.6910514,10.5548791,-8.8638277,3.1604717,-4.874757
 6,-7.2971528\PG=C01 [X(C4H3B1F2N4)]\\@
 The archive entry for this job was punched.


 My opinions may have changed, but not the fact that I am right.
                       -- Ashleigh Brilliant
 Job cpu time:       0 days  0 hours 22 minutes 31.0 seconds.
 Elapsed time:       0 days  0 hours  0 minutes 14.4 seconds.
 File lengths (MBytes):  RWF=     79 Int=      0 D2E=      0 Chk=      6 Scr=      1
 Normal termination of Gaussian 16 at Tue Apr  9 18:33:24 2024.
