 Entering Gaussian System, Link 0=/ccc/products/gaussian-16-C.02/system/default/g16/g16
 Input=f_dimethylaniline_chelpg.gjf
 Output=f_dimethylaniline_chelpg.log
 Initial command:
 /ccc/products/gaussian-16-C.02/system/default/g16/l1.exe "/ccc/scratch/cont003/gen7343/penasfra/flp/b-n_flp/f_dimethylaniline/Reactant/Gau-195090.inp" -scrdir="/ccc/scratch/cont003/gen7343/penasfra/flp/b-n_flp/f_dimethylaniline/Reactant/"
 Entering Link 1 = /ccc/products/gaussian-16-C.02/system/default/g16/l1.exe PID=    195139.
  
 Copyright (c) 1988-2021, Gaussian, Inc.  All Rights Reserved.
  
 This is part of the Gaussian(R) 16 program.  It is based on
 the Gaussian(R) 09 system (copyright 2009, Gaussian, Inc.),
 the Gaussian(R) 03 system (copyright 2003, Gaussian, Inc.),
 the Gaussian(R) 98 system (copyright 1998, Gaussian, Inc.),
 the Gaussian(R) 94 system (copyright 1995, Gaussian, Inc.),
 the Gaussian 92(TM) system (copyright 1992, Gaussian, Inc.),
 the Gaussian 90(TM) system (copyright 1990, Gaussian, Inc.),
 the Gaussian 88(TM) system (copyright 1988, Gaussian, Inc.),
 the Gaussian 86(TM) system (copyright 1986, Carnegie Mellon
 University), and the Gaussian 82(TM) system (copyright 1983,
 Carnegie Mellon University). Gaussian is a federally registered
 trademark of Gaussian, Inc.
  
 This software contains proprietary and confidential information,
 including trade secrets, belonging to Gaussian, Inc.
  
 This software is provided under written license and may be
 used, copied, transmitted, or stored only in accord with that
 written license.
  
 The following legend is applicable only to US Government
 contracts under FAR:
  
                    RESTRICTED RIGHTS LEGEND
  
 Use, reproduction and disclosure by the US Government is
 subject to restrictions as set forth in subparagraphs (a)
 and (c) of the Commercial Computer Software - Restricted
 Rights clause in FAR 52.227-19.
  
 Gaussian, Inc.
 340 Quinnipiac St., Bldg. 40, Wallingford CT 06492
  
  
 ---------------------------------------------------------------
 Warning -- This program may not be used in any manner that
 competes with the business of Gaussian, Inc. or will provide
 assistance to any competitor of Gaussian, Inc.  The licensee
 of this program is prohibited from giving any competitor of
 Gaussian, Inc. access to this program.  By using this program,
 the user acknowledges that Gaussian, Inc. is engaged in the
 business of creating and licensing software in the field of
 computational chemistry and represents and warrants to the
 licensee that it is not a competitor of Gaussian, Inc. and that
 it will not use this program in any manner prohibited above.
 ---------------------------------------------------------------
  

 Cite this work as:
 Gaussian 16, Revision C.02,
 M. J. Frisch, G. W. Trucks, H. B. Schlegel, G. E. Scuseria, 
 M. A. Robb, J. R. Cheeseman, G. Scalmani, V. Barone, 
 G. A. Petersson, H. Nakatsuji, X. Li, M. Caricato, A. V. Marenich, 
 J. Bloino, B. G. Janesko, R. Gomperts, B. Mennucci, H. P. Hratchian, 
 J. V. Ortiz, A. F. Izmaylov, J. L. Sonnenberg, D. Williams-Young, 
 F. Ding, F. Lipparini, F. Egidi, J. Goings, B. Peng, A. Petrone, 
 T. Henderson, D. Ranasinghe, V. G. Zakrzewski, J. Gao, N. Rega, 
 G. Zheng, W. Liang, M. Hada, M. Ehara, K. Toyota, R. Fukuda, 
 J. Hasegawa, M. Ishida, T. Nakajima, Y. Honda, O. Kitao, H. Nakai, 
 T. Vreven, K. Throssell, J. A. Montgomery, Jr., J. E. Peralta, 
 F. Ogliaro, M. J. Bearpark, J. J. Heyd, E. N. Brothers, K. N. Kudin, 
 V. N. Staroverov, T. A. Keith, R. Kobayashi, J. Normand, 
 K. Raghavachari, A. P. Rendell, J. C. Burant, S. S. Iyengar, 
 J. Tomasi, M. Cossi, J. M. Millam, M. Klene, C. Adamo, R. Cammi, 
 J. W. Ochterski, R. L. Martin, K. Morokuma, O. Farkas, 
 J. B. Foresman, and D. J. Fox, Gaussian, Inc., Wallingford CT, 2019.
 
 ******************************************
 Gaussian 16:  AS64L-G16RevC.02  7-Dec-2021
                 9-Apr-2024 
 ******************************************
 %nprocshared=128
 Will use up to  128 processors via shared memory.
 %mem=30GB
 %chk=f_dimethylaniline_chelpg.chk
 ----------------------------------------------------------------------
 # wb97xd/genecp scrf=(solvent=toluene,pcm) nosymm pop=(chelpg) scfcyc=
 300
 ----------------------------------------------------------------------
 1/38=1,172=1/1;
 2/12=2,15=1,17=6,18=5,40=1/2;
 3/5=7,11=2,16=1,17=8,25=1,30=1,70=2201,72=13,74=-58/1,2,3;
 4//1;
 5/5=2,7=300,38=5,53=13/2;
 6/7=2,8=2,9=2,10=2,15=8,20=3,28=1/1,2;
 99/5=1,9=1/99;
 ------------------------
 f_dimethylaniline_chelpg
 ------------------------
 Symbolic Z-matrix:
 Charge =  0 Multiplicity = 1
 C                    -0.64782   0.90527   0.77375 
 C                     0.72501   1.05432   0.86119 
 C                     1.38601   2.20456   0.39754 
 C                     0.60883   3.27938  -0.11377 
 C                    -0.78132   3.09942  -0.2314 
 C                    -1.39065   1.93332   0.20077 
 H                    -1.13017   0.00204   1.12675 
 H                     1.32101   0.24401   1.26701 
 H                    -1.39866   3.89355  -0.62961 
 H                    -2.4675    1.83793   0.10858 
 N                     1.19839   4.47344  -0.49839 
 B                     2.91638   2.09393   0.29019 
 C                     2.16837   5.1256    0.36947 
 H                     2.44591   4.47625   1.1985 
 H                     3.07447   5.3961   -0.17823 
 H                     1.73106   6.03688   0.79873 
 C                     0.44359   5.41022  -1.3047 
 H                    -0.05007   4.89595  -2.13047 
 H                    -0.31121   5.964    -0.72481 
 H                     1.13869   6.13591  -1.73163 
 F                     3.68238   2.85172  -0.49577 
 F                     3.58232   1.1368    0.94919 
 
                          Input orientation:                          
 ---------------------------------------------------------------------
 Center     Atomic      Atomic             Coordinates (Angstroms)
 Number     Number       Type             X           Y           Z
 ---------------------------------------------------------------------
      1          6           0       -0.647817    0.905267    0.773748
      2          6           0        0.725007    1.054321    0.861188
      3          6           0        1.386010    2.204562    0.397538
      4          6           0        0.608831    3.279384   -0.113773
      5          6           0       -0.781318    3.099417   -0.231395
      6          6           0       -1.390653    1.933320    0.200766
      7          1           0       -1.130166    0.002037    1.126749
      8          1           0        1.321006    0.244008    1.267007
      9          1           0       -1.398661    3.893554   -0.629614
     10          1           0       -2.467502    1.837929    0.108576
     11          7           0        1.198385    4.473441   -0.498392
     12          5           0        2.916377    2.093930    0.290192
     13          6           0        2.168374    5.125603    0.369473
     14          1           0        2.445906    4.476254    1.198499
     15          1           0        3.074468    5.396096   -0.178234
     16          1           0        1.731059    6.036879    0.798725
     17          6           0        0.443589    5.410224   -1.304696
     18          1           0       -0.050073    4.895951   -2.130470
     19          1           0       -0.311213    5.964002   -0.724807
     20          1           0        1.138686    6.135906   -1.731630
     21          9           0        3.682383    2.851721   -0.495769
     22          9           0        3.582319    1.136799    0.949193
 ---------------------------------------------------------------------
                    Distance matrix (angstroms):
                    1          2          3          4          5
     1  C    0.000000
     2  C    1.383658   0.000000
     3  C    2.442571   1.405329   0.000000
     4  C    2.829009   2.432067   1.421509   0.000000
     5  C    2.417112   2.764990   2.427681   1.406676   0.000000
     6  C    1.391764   2.384285   2.796810   2.430794   1.384859
     7  H    1.083095   2.149300   3.422573   3.912034   3.400002
     8  H    2.134674   1.084671   2.145687   3.409876   3.849459
     9  H    3.385713   3.846258   3.414986   2.161786   1.081825
    10  H    2.150248   3.372326   3.881684   3.404564   2.133108
    11  N    4.214103   3.709842   2.446570   1.386102   2.424552
    12  B    3.788169   2.491772   1.538111   2.625501   3.867299
    13  C    5.089755   4.347462   3.024130   2.464594   3.628657
    14  H    4.743784   3.845113   2.631635   2.555269   3.788833
    15  H    5.910095   5.044936   3.656268   3.250229   4.488279
    16  H    5.656246   5.083495   3.868677   3.113812   4.000234
    17  C    5.079934   4.872796   3.749937   2.446647   2.827048
    18  H    4.971654   4.930404   3.961910   2.667304   2.714542
    19  H    5.286754   5.262518   4.274765   2.902933   2.944538
    20  H    6.068616   5.719820   4.477722   3.325346   3.893249
    21  F    4.914366   3.717264   2.547576   3.126586   4.478378
    22  F    4.240099   2.859857   2.503640   3.816045   4.928183
                    6          7          8          9         10
     6  C    0.000000
     7  H    2.157580   0.000000
     8  H    3.368047   2.467076   0.000000
     9  H    2.128876   4.277944   4.930816   0.000000
    10  H    1.084989   2.489105   4.270286   2.431654   0.000000
    11  N    3.693799   5.296856   4.584733   2.664233   4.555553
    12  B    4.310951   4.631453   2.630891   4.764897   5.393021
    13  C    4.783911   6.140420   5.035233   3.903826   5.689307
    14  H    4.709689   5.728181   4.379726   4.296770   5.682453
    15  H    5.663194   6.962600   5.630929   4.740281   6.592135
    16  H    5.190553   6.686817   5.826215   4.053288   5.977909
    17  C    4.209480   6.134910   5.837234   2.479901   4.820071
    18  H    4.001125   5.977162   5.921426   2.253011   4.495419
    19  H    4.274140   6.296346   6.272941   2.340590   4.729544
    20  H    5.271948   7.137392   6.613587   3.560999   5.904537
    21  F    5.202338   5.823563   3.934927   5.188481   6.262116
    22  F    5.091664   4.850436   2.451860   5.907833   6.148053
                   11         12         13         14         15
    11  N    0.000000
    12  B    3.038986   0.000000
    13  C    1.455810   3.123593   0.000000
    14  H    2.106123   2.592650   1.089019   0.000000
    15  H    2.115060   3.338969   1.092774   1.771043   0.000000
    16  H    2.100141   4.148546   1.098146   1.762491   1.780393
    17  C    1.448242   4.433526   2.420482   3.338796   2.861930
    18  H    2.097818   4.744550   3.350218   4.181877   3.718081
    19  H    2.133523   5.140527   2.837025   3.676167   3.476219
    20  H    2.070804   4.856493   2.548647   3.612330   2.589905
    21  F    2.966518   1.333697   2.865555   2.653022   2.635191
    22  F    4.348773   1.339351   4.271519   3.536318   4.435157
                   16         17         18         19         20
    16  H    0.000000
    17  C    2.544534   0.000000
    18  H    3.613078   1.090909   0.000000
    19  H    2.548987   1.101212   1.784605   0.000000
    20  H    2.600655   1.091809   1.763437   1.773542   0.000000
    21  F    3.953304   4.205959   4.558766   5.068290   4.334007
    22  F    5.240285   5.761406   6.067110   6.423687   6.176506
                   21         22
    21  F    0.000000
    22  F    2.244746   0.000000
 Symmetry turned off by external request.
 Stoichiometry    C8H10BF2N
 Framework group  C1[X(C8H10BF2N)]
 Deg. of freedom    60
 Full point group                 C1      NOp   1
 Rotational constants (GHZ):           1.0611417           0.9675849           0.5398816
 General basis read from cards:  (5D, 7F)
 ======================================================================================================
                                       Pseudopotential Parameters
 ======================================================================================================
  Center     Atomic      Valence      Angular      Power
  Number     Number     Electrons     Momentum     of R      Exponent        Coefficient   SO-Coeffient
 ======================================================================================================
    1          6
                                   No pseudopotential on this center.
    2          6
                                   No pseudopotential on this center.
    3          6
                                   No pseudopotential on this center.
    4          6
                                   No pseudopotential on this center.
    5          6
                                   No pseudopotential on this center.
    6          6
                                   No pseudopotential on this center.
    7          1
                                   No pseudopotential on this center.
    8          1
                                   No pseudopotential on this center.
    9          1
                                   No pseudopotential on this center.
   10          1
                                   No pseudopotential on this center.
   11          7
                                   No pseudopotential on this center.
   12          5
                                   No pseudopotential on this center.
   13          6
                                   No pseudopotential on this center.
   14          1
                                   No pseudopotential on this center.
   15          1
                                   No pseudopotential on this center.
   16          1
                                   No pseudopotential on this center.
   17          6
                                   No pseudopotential on this center.
   18          1
                                   No pseudopotential on this center.
   19          1
                                   No pseudopotential on this center.
   20          1
                                   No pseudopotential on this center.
   21          9
                                   No pseudopotential on this center.
   22          9
                                   No pseudopotential on this center.
 ======================================================================================================
   334 basis functions,   522 primitive gaussians,   346 cartesian basis functions
    44 alpha electrons       44 beta electrons
       nuclear repulsion energy       688.7323556659 Hartrees.
 NAtoms=   22 NActive=   22 NUniq=   22 SFac= 1.00D+00 NAtFMM=   60 NAOKFM=F Big=F
 Integral buffers will be    131072 words long.
 Raffenetti 2 integral format.
 Two-electron integral symmetry is turned off.
 Nuclear repulsion after empirical dispersion term =      688.7179494178 Hartrees.
 ------------------------------------------------------------------------------
 Polarizable Continuum Model (PCM)
 =================================
 Model                : PCM.
 Atomic radii         : UFF (Universal Force Field).
 Polarization charges : Total charges.
 Charge compensation  : None.
 Solution method      : On-the-fly selection.
 Cavity type          : Scaled VdW (van der Waals Surface) (Alpha=1.100).
 Cavity algorithm     : GePol (No added spheres)
                        Default sphere list used, NSphG=   22.
                        Lebedev-Laikov grids with approx.  5.0 points / Ang**2.
                        Smoothing algorithm: York/Karplus (Gamma=1.0000).
                        Polarization charges: spherical gaussians, with
                                              point-specific exponents (IZeta= 3).
                        Self-potential: point-specific (ISelfS= 7).
                        Self-field    : sphere-specific E.n sum rule (ISelfD= 2).
 Solvent              : Toluene, Eps=   2.374100 Eps(inf)=   2.238315
 ------------------------------------------------------------------------------
 One-electron integrals computed using PRISM.
   1 Symmetry operations used in ECPInt.
 ECPInt:  NShTT=    7503 NPrTT=   25897 LenC2=    7253 LenP2D=   18488.
 LDataN:  DoStor=T MaxTD1= 4 Len=   56
 NBasis=   334 RedAO= T EigKep=  2.02D-06  NBF=   334
 NBsUse=   333 1.00D-06 EigRej=  5.90D-07 NBFU=   333
 ExpMin= 3.15D-02 ExpMax= 1.14D+04 ExpMxC= 1.72D+03 IAcc=3 IRadAn=         5 AccDes= 0.00D+00
 Harris functional with IExCor= 4639 and IRadAn=       5 diagonalized for initial guess.
 HarFok:  IExCor= 4639 AccDes= 0.00D+00 IRadAn=         5 IDoV= 1 UseB2=F ITyADJ=14
 ICtDFT=  3500011 ScaDFX=  1.000000  1.000000  1.000000  1.000000
 FoFCou: FMM=F IPFlag=           0 FMFlag=      100000 FMFlg1=           0
         NFxFlg=           0 DoJE=T BraDBF=F KetDBF=T FulRan=T
         wScrn=  0.000000 ICntrl=       500 IOpCl=  0 I1Cent=   200000004 NGrid=           0
         NMat0=    1 NMatS0=      1 NMatT0=    0 NMatD0=    1 NMtDS0=    0 NMtDT0=    0
 Symmetry not used in FoFCou.
 Requested convergence on RMS density matrix=1.00D-08 within 300 cycles.
 Requested convergence on MAX density matrix=1.00D-06.
 Requested convergence on             energy=1.00D-06.
 No special actions if energy rises.
 Inv3:  Mode=1 IEnd=     9441228.
 Iteration    1 A*A^-1 deviation from unit magnitude is 4.22D-15 for   1765.
 Iteration    1 A*A^-1 deviation from orthogonality  is 2.60D-15 for   1771    923.
 Iteration    1 A^-1*A deviation from unit magnitude is 4.66D-15 for   1765.
 Iteration    1 A^-1*A deviation from orthogonality  is 2.32D-15 for   1769   1240.
 Error on total polarization charges =  0.00836
 SCF Done:  E(RwB97XD) =  -590.259999604     A.U. after   16 cycles
            NFock= 16  Conv=0.54D-08     -V/T= 2.0038

 **********************************************************************

            Population analysis using the SCF Density.

 **********************************************************************

 Alpha  occ. eigenvalues --  -24.81506 -24.81410 -14.45425 -10.34429 -10.31305
 Alpha  occ. eigenvalues --  -10.31288 -10.30071 -10.30017 -10.28914 -10.28481
 Alpha  occ. eigenvalues --  -10.28197  -6.95201  -1.33725  -1.30540  -1.05978
 Alpha  occ. eigenvalues --   -0.95893  -0.86087  -0.85723  -0.82104  -0.76489
 Alpha  occ. eigenvalues --   -0.71272  -0.68454  -0.66610  -0.63121  -0.61878
 Alpha  occ. eigenvalues --   -0.58662  -0.57975  -0.57067  -0.56452  -0.55685
 Alpha  occ. eigenvalues --   -0.53638  -0.52457  -0.51444  -0.50456  -0.49305
 Alpha  occ. eigenvalues --   -0.48550  -0.48018  -0.46809  -0.46228  -0.44272
 Alpha  occ. eigenvalues --   -0.42226  -0.37304  -0.34456  -0.28191
 Alpha virt. eigenvalues --    0.01503   0.03828   0.04923   0.05340   0.05763
 Alpha virt. eigenvalues --    0.06265   0.06822   0.06915   0.08360   0.08606
 Alpha virt. eigenvalues --    0.09207   0.09524   0.09871   0.11657   0.12355
 Alpha virt. eigenvalues --    0.12478   0.12642   0.13747   0.14426   0.14921
 Alpha virt. eigenvalues --    0.15631   0.16105   0.16325   0.16861   0.17480
 Alpha virt. eigenvalues --    0.18063   0.18260   0.18529   0.19074   0.19368
 Alpha virt. eigenvalues --    0.20192   0.20477   0.20815   0.21154   0.21599
 Alpha virt. eigenvalues --    0.22287   0.22797   0.22914   0.23887   0.24320
 Alpha virt. eigenvalues --    0.24452   0.25053   0.25868   0.26084   0.26559
 Alpha virt. eigenvalues --    0.26817   0.27332   0.28068   0.28963   0.29758
 Alpha virt. eigenvalues --    0.30687   0.31063   0.31523   0.32509   0.32871
 Alpha virt. eigenvalues --    0.34195   0.34827   0.35442   0.35901   0.36149
 Alpha virt. eigenvalues --    0.37235   0.37460   0.38279   0.38499   0.38882
 Alpha virt. eigenvalues --    0.39400   0.39515   0.40420   0.40729   0.41972
 Alpha virt. eigenvalues --    0.43439   0.43738   0.45458   0.47186   0.47572
 Alpha virt. eigenvalues --    0.48026   0.49125   0.50672   0.51724   0.54297
 Alpha virt. eigenvalues --    0.55197   0.56954   0.58344   0.58697   0.59336
 Alpha virt. eigenvalues --    0.61010   0.62131   0.63360   0.63850   0.64292
 Alpha virt. eigenvalues --    0.64881   0.65943   0.66393   0.67348   0.68473
 Alpha virt. eigenvalues --    0.69566   0.70408   0.70809   0.71734   0.74093
 Alpha virt. eigenvalues --    0.74864   0.75132   0.75337   0.75922   0.77128
 Alpha virt. eigenvalues --    0.78540   0.79484   0.81154   0.81885   0.83173
 Alpha virt. eigenvalues --    0.84181   0.84990   0.87147   0.87329   0.88977
 Alpha virt. eigenvalues --    0.92533   0.93800   0.94365   0.95400   0.96383
 Alpha virt. eigenvalues --    0.98494   0.98699   1.00176   1.01046   1.03171
 Alpha virt. eigenvalues --    1.03599   1.04565   1.07383   1.08694   1.11157
 Alpha virt. eigenvalues --    1.12447   1.13123   1.14322   1.17608   1.19567
 Alpha virt. eigenvalues --    1.20555   1.21699   1.24022   1.32483   1.34760
 Alpha virt. eigenvalues --    1.35549   1.36211   1.38306   1.40202   1.43718
 Alpha virt. eigenvalues --    1.46480   1.47203   1.48459   1.49773   1.51243
 Alpha virt. eigenvalues --    1.53043   1.54102   1.56642   1.58378   1.59191
 Alpha virt. eigenvalues --    1.60759   1.62057   1.62260   1.63314   1.64043
 Alpha virt. eigenvalues --    1.64856   1.65865   1.67560   1.69058   1.70838
 Alpha virt. eigenvalues --    1.73647   1.75757   1.77415   1.78735   1.79887
 Alpha virt. eigenvalues --    1.80782   1.81886   1.83170   1.83922   1.85118
 Alpha virt. eigenvalues --    1.88288   1.92583   1.93473   1.95417   1.97701
 Alpha virt. eigenvalues --    1.99533   2.00708   2.01895   2.02387   2.04675
 Alpha virt. eigenvalues --    2.06421   2.07001   2.09683   2.11111   2.13813
 Alpha virt. eigenvalues --    2.14408   2.14920   2.19630   2.20907   2.22109
 Alpha virt. eigenvalues --    2.24313   2.26255   2.29467   2.31737   2.35583
 Alpha virt. eigenvalues --    2.38637   2.42227   2.48219   2.50204   2.52059
 Alpha virt. eigenvalues --    2.53950   2.55264   2.56732   2.58883   2.60241
 Alpha virt. eigenvalues --    2.63448   2.64836   2.66200   2.67460   2.69887
 Alpha virt. eigenvalues --    2.70943   2.72193   2.76032   2.77136   2.78800
 Alpha virt. eigenvalues --    2.80986   2.81234   2.81927   2.83484   2.84960
 Alpha virt. eigenvalues --    2.86507   2.89181   2.90084   2.92619   2.95355
 Alpha virt. eigenvalues --    2.97036   2.98691   3.03511   3.06224   3.09076
 Alpha virt. eigenvalues --    3.09813   3.14442   3.20997   3.27061   3.33893
 Alpha virt. eigenvalues --    3.45360   3.46142   3.51010   3.57443   3.63346
 Alpha virt. eigenvalues --    3.66112   3.66860   3.79377   3.86208   3.86525
 Alpha virt. eigenvalues --    3.88585   3.89060   3.89322   3.90313   3.91049
 Alpha virt. eigenvalues --    3.94117   4.03172   4.03461   4.05365   4.08241
 Alpha virt. eigenvalues --    4.11207   4.14815   4.20324   4.24381   4.30098
 Alpha virt. eigenvalues --    4.42052   4.62067   4.69500   4.93819   4.98236
 Alpha virt. eigenvalues --    5.16108   6.41572   6.44244   6.49254   6.54187
 Alpha virt. eigenvalues --    6.56354   6.77534  14.78006  23.75898  24.07224
 Alpha virt. eigenvalues --   24.07789  24.09131  24.10095  24.17238  24.23432
 Alpha virt. eigenvalues --   24.32527  35.73626  66.95536  66.96806
          Condensed to atoms (all electrons):
               1          2          3          4          5          6
     1  C    7.687369  -0.138726  -1.711409   0.025285  -0.574613   0.720840
     2  C   -0.138726  13.152788   0.893561  -6.991484  -1.247875  -0.367417
     3  C   -1.711409   0.893561  16.866211  -4.617796  -6.090049   0.501986
     4  C    0.025285  -6.991484  -4.617796  18.266496   1.932169  -1.597603
     5  C   -0.574613  -1.247875  -6.090049   1.932169  12.167203  -0.200603
     6  C    0.720840  -0.367417   0.501986  -1.597603  -0.200603   7.239528
     7  H    0.407257  -0.033212   0.004290   0.014444   0.007575  -0.060018
     8  H   -0.014259   0.379398  -0.166154   0.103409   0.067881  -0.051753
     9  H    0.000214   0.063872  -0.060149  -0.054327   0.539062  -0.128004
    10  H   -0.038850  -0.012707   0.019567   0.045358  -0.042890   0.350913
    11  N   -0.002362   0.246502   0.279380  -0.242550  -0.586773   0.024824
    12  B   -0.015287   0.105778   0.844190  -0.402758  -0.199625   0.119697
    13  C    0.008237  -0.045410  -0.047669   0.017382  -0.153170   0.006971
    14  H    0.020390  -0.064789  -0.102823   0.178435   0.042762  -0.009772
    15  H   -0.001712   0.044406   0.112439  -0.102321  -0.043558  -0.000289
    16  H   -0.001400  -0.042124  -0.102821   0.070265   0.057382   0.006259
    17  C   -0.005270   0.082383   0.039621  -0.043416  -0.145134  -0.239388
    18  H    0.001912   0.000680  -0.034706  -0.048685   0.076763  -0.011418
    19  H    0.002341  -0.012990  -0.018705  -0.004944   0.004931   0.026719
    20  H   -0.000506   0.009717   0.014546   0.006627   0.003313  -0.012710
    21  F    0.022595   0.161669  -0.055207  -0.146078   0.017981   0.003114
    22  F    0.045512  -0.188794  -0.055450   0.194441   0.017289   0.006681
               7          8          9         10         11         12
     1  C    0.407257  -0.014259   0.000214  -0.038850  -0.002362  -0.015287
     2  C   -0.033212   0.379398   0.063872  -0.012707   0.246502   0.105778
     3  C    0.004290  -0.166154  -0.060149   0.019567   0.279380   0.844190
     4  C    0.014444   0.103409  -0.054327   0.045358  -0.242550  -0.402758
     5  C    0.007575   0.067881   0.539062  -0.042890  -0.586773  -0.199625
     6  C   -0.060018  -0.051753  -0.128004   0.350913   0.024824   0.119697
     7  H    0.464953  -0.003066   0.001801  -0.006679   0.000164  -0.003853
     8  H   -0.003066   0.473894   0.001662  -0.000021  -0.005715  -0.034947
     9  H    0.001801   0.001662   0.503889  -0.009851  -0.030054  -0.007770
    10  H   -0.006679  -0.000021  -0.009851   0.459175  -0.002090   0.001599
    11  N    0.000164  -0.005715  -0.030054  -0.002090   6.996474   0.021959
    12  B   -0.003853  -0.034947  -0.007770   0.001599   0.021959   3.608351
    13  C   -0.000639  -0.002519  -0.009148   0.000098   0.189764   0.020688
    14  H    0.000356   0.001636  -0.000286  -0.000093  -0.072187  -0.018805
    15  H    0.000071  -0.000614  -0.000107   0.000072  -0.028739  -0.005528
    16  H   -0.000018   0.000004   0.000587  -0.000284  -0.096611   0.003597
    17  C   -0.000992   0.001406   0.016101   0.002092   0.269676  -0.014615
    18  H    0.000092  -0.000229  -0.009306  -0.000342  -0.047795  -0.003227
    19  H   -0.000100  -0.000149  -0.010459   0.000691  -0.047273   0.005002
    20  H   -0.000067   0.000233   0.006252   0.000127  -0.057786  -0.004192
    21  F   -0.000143   0.000607   0.000222   0.000084  -0.011720   0.346995
    22  F    0.000052   0.010748  -0.000159   0.000181  -0.001054   0.347942
              13         14         15         16         17         18
     1  C    0.008237   0.020390  -0.001712  -0.001400  -0.005270   0.001912
     2  C   -0.045410  -0.064789   0.044406  -0.042124   0.082383   0.000680
     3  C   -0.047669  -0.102823   0.112439  -0.102821   0.039621  -0.034706
     4  C    0.017382   0.178435  -0.102321   0.070265  -0.043416  -0.048685
     5  C   -0.153170   0.042762  -0.043558   0.057382  -0.145134   0.076763
     6  C    0.006971  -0.009772  -0.000289   0.006259  -0.239388  -0.011418
     7  H   -0.000639   0.000356   0.000071  -0.000018  -0.000992   0.000092
     8  H   -0.002519   0.001636  -0.000614   0.000004   0.001406  -0.000229
     9  H   -0.009148  -0.000286  -0.000107   0.000587   0.016101  -0.009306
    10  H    0.000098  -0.000093   0.000072  -0.000284   0.002092  -0.000342
    11  N    0.189764  -0.072187  -0.028739  -0.096611   0.269676  -0.047795
    12  B    0.020688  -0.018805  -0.005528   0.003597  -0.014615  -0.003227
    13  C    5.358470   0.383004   0.387974   0.437168  -0.093287   0.005094
    14  H    0.383004   0.582361  -0.028343  -0.031952  -0.004053  -0.000842
    15  H    0.387974  -0.028343   0.514801  -0.052406  -0.007122  -0.001651
    16  H    0.437168  -0.031952  -0.052406   0.572818   0.005423   0.001855
    17  C   -0.093287  -0.004053  -0.007122   0.005423   5.321920   0.429473
    18  H    0.005094  -0.000842  -0.001651   0.001855   0.429473   0.538582
    19  H   -0.007491  -0.003957   0.002458   0.005331   0.403466  -0.047695
    20  H    0.005322   0.003336   0.000844  -0.007706   0.405632  -0.016628
    21  F    0.018400  -0.014904  -0.014239   0.007968  -0.000620   0.000221
    22  F    0.001620  -0.008774   0.000187   0.000382  -0.001559   0.000013
              19         20         21         22
     1  C    0.002341  -0.000506   0.022595   0.045512
     2  C   -0.012990   0.009717   0.161669  -0.188794
     3  C   -0.018705   0.014546  -0.055207  -0.055450
     4  C   -0.004944   0.006627  -0.146078   0.194441
     5  C    0.004931   0.003313   0.017981   0.017289
     6  C    0.026719  -0.012710   0.003114   0.006681
     7  H   -0.000100  -0.000067  -0.000143   0.000052
     8  H   -0.000149   0.000233   0.000607   0.010748
     9  H   -0.010459   0.006252   0.000222  -0.000159
    10  H    0.000691   0.000127   0.000084   0.000181
    11  N   -0.047273  -0.057786  -0.011720  -0.001054
    12  B    0.005002  -0.004192   0.346995   0.347942
    13  C   -0.007491   0.005322   0.018400   0.001620
    14  H   -0.003957   0.003336  -0.014904  -0.008774
    15  H    0.002458   0.000844  -0.014239   0.000187
    16  H    0.005331  -0.007706   0.007968   0.000382
    17  C    0.403466   0.405632  -0.000620  -0.001559
    18  H   -0.047695  -0.016628   0.000221   0.000013
    19  H    0.563749  -0.041779  -0.000749   0.000023
    20  H   -0.041779   0.498568  -0.000204  -0.000186
    21  F   -0.000749  -0.000204   8.703116  -0.059338
    22  F    0.000023  -0.000186  -0.059338   8.711795
 Mulliken charges:
               1
     1  C   -0.437559
     2  C    0.004773
     3  C   -0.512851
     4  C   -0.602350
     5  C    0.349977
     6  C   -0.328557
     7  H    0.207730
     8  H    0.238546
     9  H    0.185958
    10  H    0.233848
    11  N    0.203965
    12  B    0.284809
    13  C   -0.480857
    14  H    0.149301
    15  H    0.223377
    16  H    0.166281
    17  C   -0.421736
    18  H    0.167839
    19  H    0.181578
    20  H    0.187248
    21  F    0.020228
    22  F   -0.021549
 Sum of Mulliken charges =  -0.00000
 Mulliken charges with hydrogens summed into heavy atoms:
               1
     1  C   -0.229828
     2  C    0.243319
     3  C   -0.512851
     4  C   -0.602350
     5  C    0.535935
     6  C   -0.094709
    11  N    0.203965
    12  B    0.284809
    13  C    0.058102
    17  C    0.114929
    21  F    0.020228
    22  F   -0.021549
 Electronic spatial extent (au):  <R**2>=           5141.2302
 Charge=             -0.0000 electrons
 Dipole moment (field-independent basis, Debye):
    X=             -2.5298    Y=              2.2968    Z=             -0.2295  Tot=              3.4246
 Quadrupole moment (field-independent basis, Debye-Ang):
   XX=            -77.1507   YY=            -49.5462   ZZ=            -71.2045
   XY=             -1.5027   XZ=              1.3838   YZ=             -2.3811
 Traceless Quadrupole moment (field-independent basis, Debye-Ang):
   XX=            -11.1836   YY=             16.4210   ZZ=             -5.2374
   XY=             -1.5027   XZ=              1.3838   YZ=             -2.3811
 Octapole moment (field-independent basis, Debye-Ang**2):
  XXX=           -276.7864  YYY=           -481.0913  ZZZ=            -22.1193  XYY=            -61.5349
  XXY=           -208.4299  XXZ=             -4.4670  XZZ=            -74.7691  YZZ=           -202.3253
  YYZ=            -18.4467  XYZ=             11.8209
 Hexadecapole moment (field-independent basis, Debye-Ang**3):
 XXXX=          -1833.0442 YYYY=          -3951.2437 ZZZZ=           -289.7758 XXXY=           -761.1811
 XXXZ=            -46.2636 YYYX=           -560.1732 YYYZ=             33.8951 ZZZX=            -45.1947
 ZZZY=            104.0045 XXYY=          -1028.5643 XXZZ=           -331.8180 YYZZ=           -804.1056
 XXYZ=             65.2350 YYXZ=             24.6611 ZZXY=           -223.6176
 N-N= 6.887179494178D+02 E-N=-2.761022171631D+03  KE= 5.880512337614D+02
 Breneman (CHELPG) radii used.
 Generate Potential Derived Charges using the Breneman model, NDens= 1.
 Grid spacing= 0.300 Box extension= 2.800
 NStep X,Y,Z=   41     41     31   Total possible points=       52111
 Number of Points to Fit=   13811

 **********************************************************************

            Electrostatic Properties Using The SCF Density.

 **********************************************************************

       Atomic Center    1 is at  -0.647817  0.905267  0.773748
       Atomic Center    2 is at   0.725007  1.054321  0.861188
       Atomic Center    3 is at   1.386010  2.204562  0.397538
       Atomic Center    4 is at   0.608831  3.279384 -0.113773
       Atomic Center    5 is at  -0.781318  3.099417 -0.231395
       Atomic Center    6 is at  -1.390653  1.933320  0.200766
       Atomic Center    7 is at  -1.130166  0.002037  1.126749
       Atomic Center    8 is at   1.321006  0.244008  1.267007
       Atomic Center    9 is at  -1.398661  3.893554 -0.629614
       Atomic Center   10 is at  -2.467502  1.837929  0.108576
       Atomic Center   11 is at   1.198385  4.473441 -0.498392
       Atomic Center   12 is at   2.916377  2.093930  0.290192
       Atomic Center   13 is at   2.168374  5.125603  0.369473
       Atomic Center   14 is at   2.445906  4.476254  1.198499
       Atomic Center   15 is at   3.074468  5.396096 -0.178234
       Atomic Center   16 is at   1.731059  6.036879  0.798725
       Atomic Center   17 is at   0.443589  5.410224 -1.304696
       Atomic Center   18 is at  -0.050073  4.895951 -2.130470
       Atomic Center   19 is at  -0.311213  5.964002 -0.724807
       Atomic Center   20 is at   1.138686  6.135906 -1.731630
       Atomic Center   21 is at   3.682383  2.851721 -0.495769
       Atomic Center   22 is at   3.582319  1.136799  0.949193
   13811 points will be used for fitting atomic charges
 Fitting point charges to electrostatic potential
 Charges from ESP fit, RMS=   0.00377 RRMS=   0.29081:
 ESP charges:
               1
     1  C   -0.198167
     2  C    0.029242
     3  C   -0.476284
     4  C    0.463759
     5  C   -0.276762
     6  C   -0.024803
     7  H    0.110582
     8  H    0.080191
     9  H    0.132170
    10  H    0.101488
    11  N   -0.371556
    12  B    0.847438
    13  C    0.006714
    14  H    0.035443
    15  H    0.080764
    16  H    0.038180
    17  C   -0.076075
    18  H    0.054366
    19  H    0.066040
    20  H    0.091553
    21  F   -0.364710
    22  F   -0.349573
 Sum of ESP charges =   0.00000
 ESP charges with hydrogens summed into heavy atoms:
               1
     1  C   -0.087585
     2  C    0.109433
     3  C   -0.476284
     4  C    0.463759
     5  C   -0.144592
     6  C    0.076685
    11  N   -0.371556
    12  B    0.847438
    13  C    0.161101
    17  C    0.135884
    21  F   -0.364710
    22  F   -0.349573
 Charge=   0.00000 Dipole=    -2.5842     2.3148    -0.1873 Tot=     3.4745
 -----------------------------------------------------------------

              Electrostatic Properties (Atomic Units)

 -----------------------------------------------------------------
    Center     Electric         -------- Electric Field --------
               Potential          X             Y             Z
 -----------------------------------------------------------------
    1 Atom    -14.778708
    2 Atom    -14.766452
    3 Atom    -14.781990
    4 Atom    -14.717669
    5 Atom    -14.772085
    6 Atom    -14.762750
    7 Atom     -1.104717
    8 Atom     -1.106428
    9 Atom     -1.094955
   10 Atom     -1.096555
   11 Atom    -18.365883
   12 Atom    -11.362289
   13 Atom    -14.739842
   14 Atom     -1.100363
   15 Atom     -1.113706
   16 Atom     -1.105512
   17 Atom    -14.737022
   18 Atom     -1.100141
   19 Atom     -1.103680
   20 Atom     -1.099681
   21 Atom    -26.600262
   22 Atom    -26.601959
 -----------------------------------------------------------------
 Unable to Open any file for archive entry.
 1\1\GINC-IRENE4800\SP\RwB97XD\GenECP\C8H10B1F2N1\PENASFRA\09-Apr-2024\
 0\\# wb97xd/genecp scrf=(solvent=toluene,pcm) nosymm pop=(chelpg) scfc
 yc=300\\f_dimethylaniline_chelpg\\0,1\C,0,-0.647817,0.905267,0.773748\
 C,0,0.725007,1.054321,0.861188\C,0,1.38601,2.204562,0.397538\C,0,0.608
 831,3.279384,-0.113773\C,0,-0.781318,3.099417,-0.231395\C,0,-1.390653,
 1.93332,0.200766\H,0,-1.130166,0.002037,1.126749\H,0,1.321006,0.244008
 ,1.267007\H,0,-1.398661,3.893554,-0.629614\H,0,-2.467502,1.837929,0.10
 8576\N,0,1.198385,4.473441,-0.498392\B,0,2.916377,2.09393,0.290192\C,0
 ,2.168374,5.125603,0.369473\H,0,2.445906,4.476254,1.198499\H,0,3.07446
 8,5.396096,-0.178234\H,0,1.731059,6.036879,0.798725\C,0,0.443589,5.410
 224,-1.304696\H,0,-0.050073,4.895951,-2.13047\H,0,-0.311213,5.964002,-
 0.724807\H,0,1.138686,6.135906,-1.73163\F,0,3.682383,2.851721,-0.49576
 9\F,0,3.582319,1.136799,0.949193\\Version=AS64L-G16RevC.02\HF=-590.259
 9996\RMSD=5.435e-09\Dipole=-0.9952914,0.9036195,-0.090274\Quadrupole=-
 8.3147244,12.2085839,-3.8938595,-1.1172559,1.0288339,-1.7702771\PG=C01
  [X(C8H10B1F2N1)]\\@
 The archive entry for this job was punched.


 Change starts when someone sees the next step.
                            -- William Drayton
 Job cpu time:       0 days  0 hours 34 minutes 36.4 seconds.
 Elapsed time:       0 days  0 hours  0 minutes 21.6 seconds.
 File lengths (MBytes):  RWF=    116 Int=      0 D2E=      0 Chk=      8 Scr=      1
 Normal termination of Gaussian 16 at Tue Apr  9 17:26:20 2024.
