 Entering Gaussian System, Link 0=/ccc/products/gaussian-16-C.02/system/default/g16/g16
 Input=f_dimetriazole_chelpg.gjf
 Output=f_dimetriazole_chelpg.log
 Initial command:
 /ccc/products/gaussian-16-C.02/system/default/g16/l1.exe "/ccc/scratch/cont003/gen7343/penasfra/flp/b-n_flp/f_dimetriazole/Reactant/Gau-1307090.inp" -scrdir="/ccc/scratch/cont003/gen7343/penasfra/flp/b-n_flp/f_dimetriazole/Reactant/"
 Entering Link 1 = /ccc/products/gaussian-16-C.02/system/default/g16/l1.exe PID=   1307139.
  
 Copyright (c) 1988-2021, Gaussian, Inc.  All Rights Reserved.
  
 This is part of the Gaussian(R) 16 program.  It is based on
 the Gaussian(R) 09 system (copyright 2009, Gaussian, Inc.),
 the Gaussian(R) 03 system (copyright 2003, Gaussian, Inc.),
 the Gaussian(R) 98 system (copyright 1998, Gaussian, Inc.),
 the Gaussian(R) 94 system (copyright 1995, Gaussian, Inc.),
 the Gaussian 92(TM) system (copyright 1992, Gaussian, Inc.),
 the Gaussian 90(TM) system (copyright 1990, Gaussian, Inc.),
 the Gaussian 88(TM) system (copyright 1988, Gaussian, Inc.),
 the Gaussian 86(TM) system (copyright 1986, Carnegie Mellon
 University), and the Gaussian 82(TM) system (copyright 1983,
 Carnegie Mellon University). Gaussian is a federally registered
 trademark of Gaussian, Inc.
  
 This software contains proprietary and confidential information,
 including trade secrets, belonging to Gaussian, Inc.
  
 This software is provided under written license and may be
 used, copied, transmitted, or stored only in accord with that
 written license.
  
 The following legend is applicable only to US Government
 contracts under FAR:
  
                    RESTRICTED RIGHTS LEGEND
  
 Use, reproduction and disclosure by the US Government is
 subject to restrictions as set forth in subparagraphs (a)
 and (c) of the Commercial Computer Software - Restricted
 Rights clause in FAR 52.227-19.
  
 Gaussian, Inc.
 340 Quinnipiac St., Bldg. 40, Wallingford CT 06492
  
  
 ---------------------------------------------------------------
 Warning -- This program may not be used in any manner that
 competes with the business of Gaussian, Inc. or will provide
 assistance to any competitor of Gaussian, Inc.  The licensee
 of this program is prohibited from giving any competitor of
 Gaussian, Inc. access to this program.  By using this program,
 the user acknowledges that Gaussian, Inc. is engaged in the
 business of creating and licensing software in the field of
 computational chemistry and represents and warrants to the
 licensee that it is not a competitor of Gaussian, Inc. and that
 it will not use this program in any manner prohibited above.
 ---------------------------------------------------------------
  

 Cite this work as:
 Gaussian 16, Revision C.02,
 M. J. Frisch, G. W. Trucks, H. B. Schlegel, G. E. Scuseria, 
 M. A. Robb, J. R. Cheeseman, G. Scalmani, V. Barone, 
 G. A. Petersson, H. Nakatsuji, X. Li, M. Caricato, A. V. Marenich, 
 J. Bloino, B. G. Janesko, R. Gomperts, B. Mennucci, H. P. Hratchian, 
 J. V. Ortiz, A. F. Izmaylov, J. L. Sonnenberg, D. Williams-Young, 
 F. Ding, F. Lipparini, F. Egidi, J. Goings, B. Peng, A. Petrone, 
 T. Henderson, D. Ranasinghe, V. G. Zakrzewski, J. Gao, N. Rega, 
 G. Zheng, W. Liang, M. Hada, M. Ehara, K. Toyota, R. Fukuda, 
 J. Hasegawa, M. Ishida, T. Nakajima, Y. Honda, O. Kitao, H. Nakai, 
 T. Vreven, K. Throssell, J. A. Montgomery, Jr., J. E. Peralta, 
 F. Ogliaro, M. J. Bearpark, J. J. Heyd, E. N. Brothers, K. N. Kudin, 
 V. N. Staroverov, T. A. Keith, R. Kobayashi, J. Normand, 
 K. Raghavachari, A. P. Rendell, J. C. Burant, S. S. Iyengar, 
 J. Tomasi, M. Cossi, J. M. Millam, M. Klene, C. Adamo, R. Cammi, 
 J. W. Ochterski, R. L. Martin, K. Morokuma, O. Farkas, 
 J. B. Foresman, and D. J. Fox, Gaussian, Inc., Wallingford CT, 2019.
 
 ******************************************
 Gaussian 16:  AS64L-G16RevC.02  7-Dec-2021
                 9-Apr-2024 
 ******************************************
 %nprocshared=128
 Will use up to  128 processors via shared memory.
 %mem=30GB
 %chk=f_dimetriazole_chelpg.chk
 ----------------------------------------------------------------------
 # wb97xd/genecp scrf=(solvent=toluene,pcm) nosymm pop=(chelpg) scfcyc=
 300
 ----------------------------------------------------------------------
 1/38=1,172=1/1;
 2/12=2,15=1,17=6,18=5,40=1/2;
 3/5=7,11=2,16=1,17=8,25=1,30=1,70=2201,72=13,74=-58/1,2,3;
 4//1;
 5/5=2,7=300,38=5,53=13/2;
 6/7=2,8=2,9=2,10=2,15=8,20=3,28=1/1,2;
 99/5=1,9=1/99;
 ---------------------
 f_dimetriazole_chelpg
 ---------------------
 Symbolic Z-matrix:
 Charge =  0 Multiplicity = 1
 C                     2.65125   1.67153   1.18225 
 C                     3.0954    0.4159    0.79318 
 N                     2.08374   2.17576   0.07274 
 N                     2.16104   1.30029  -0.9537 
 N                     2.76293   0.2504   -0.52808 
 B                     3.83001  -0.65963   1.59622 
 C                     1.45468   3.46831  -0.11012 
 H                     1.0957    3.51392  -1.13571 
 H                     0.61517   3.57852   0.57752 
 H                     2.17799   4.26686   0.06113 
 F                     4.1918   -1.82041   1.06888 
 F                     4.14344  -0.47163   2.88113 
 C                     2.71128   2.41627   2.46811 
 H                     3.2245    1.82406   3.22283 
 H                     3.24661   3.36157   2.345 
 H                     1.70566   2.64474   2.83121 
 
                          Input orientation:                          
 ---------------------------------------------------------------------
 Center     Atomic      Atomic             Coordinates (Angstroms)
 Number     Number       Type             X           Y           Z
 ---------------------------------------------------------------------
      1          6           0        2.651254    1.671534    1.182253
      2          6           0        3.095401    0.415902    0.793176
      3          7           0        2.083741    2.175760    0.072739
      4          7           0        2.161040    1.300290   -0.953702
      5          7           0        2.762930    0.250399   -0.528082
      6          5           0        3.830014   -0.659627    1.596219
      7          6           0        1.454681    3.468306   -0.110116
      8          1           0        1.095702    3.513922   -1.135706
      9          1           0        0.615167    3.578521    0.577518
     10          1           0        2.177989    4.266863    0.061128
     11          9           0        4.191804   -1.820407    1.068879
     12          9           0        4.143438   -0.471632    2.881127
     13          6           0        2.711282    2.416270    2.468108
     14          1           0        3.224500    1.824056    3.222833
     15          1           0        3.246607    3.361565    2.345000
     16          1           0        1.705664    2.644744    2.831210
 ---------------------------------------------------------------------
                    Distance matrix (angstroms):
                    1          2          3          4          5
     1  C    0.000000
     2  C    1.387537   0.000000
     3  N    1.344372   2.153970   0.000000
     4  N    2.222709   2.169506   1.351297   0.000000
     5  N    2.226509   1.372462   2.128215   1.282846   0.000000
     6  B    2.644835   1.530130   3.661950   3.623375   2.545480
     7  C    2.516027   3.581211   1.449078   2.431229   3.498734
     8  H    3.344708   4.161383   2.056025   2.463379   3.714760
     9  H    2.854462   4.024951   2.092666   3.150348   4.112376
    10  H    2.866467   4.025846   2.093258   3.135398   4.101379
    11  F    3.818350   2.505831   4.626616   4.237167   2.979967
    12  F    3.115437   2.499127   4.374709   4.666425   3.748311
    13  C    1.487164   2.637123   2.487860   3.641011   3.697407
    14  H    2.125051   2.811191   3.368697   4.341512   4.093752
    15  H    2.136031   3.332859   2.814527   4.038409   4.262382
    16  H    2.135495   3.324558   2.823482   4.042336   4.258585
                    6          7          8          9         10
     6  B    0.000000
     7  C    5.059013   0.000000
     8  H    5.688443   1.087558   0.000000
     9  H    5.416169   1.090767   1.780512   0.000000
    10  H    5.418117   1.090959   1.780639   1.784064   0.000000
    11  F    1.325289   6.070614   6.549894   6.494782   6.490444
    12  F    1.335876   5.630281   6.427152   5.844574   5.853949
    13  C    3.387166   3.055007   4.099075   3.052680   3.082637
    14  H    3.030050   4.116354   5.136564   4.109070   4.130238
    15  H    4.131709   3.041379   4.094499   3.177348   2.679101
    16  H    4.117880   3.064742   4.106574   2.672125   3.244644
                   11         12         13         14         15
    11  F    0.000000
    12  F    2.259596   0.000000
    13  C    4.700981   3.249867   0.000000
    14  H    4.342500   2.496276   1.087989   0.000000
    15  H    5.419845   3.973051   1.093303   1.770597   0.000000
    16  H    5.405948   3.956897   1.093303   1.770243   1.767693
                   16
    16  H    0.000000
 Symmetry turned off by external request.
 Stoichiometry    C4H6BF2N3
 Framework group  C1[X(C4H6BF2N3)]
 Deg. of freedom    42
 Full point group                 C1      NOp   1
 Rotational constants (GHZ):           2.5977122           0.9288531           0.6901469
 General basis read from cards:  (5D, 7F)
 ======================================================================================================
                                       Pseudopotential Parameters
 ======================================================================================================
  Center     Atomic      Valence      Angular      Power
  Number     Number     Electrons     Momentum     of R      Exponent        Coefficient   SO-Coeffient
 ======================================================================================================
    1          6
                                   No pseudopotential on this center.
    2          6
                                   No pseudopotential on this center.
    3          7
                                   No pseudopotential on this center.
    4          7
                                   No pseudopotential on this center.
    5          7
                                   No pseudopotential on this center.
    6          5
                                   No pseudopotential on this center.
    7          6
                                   No pseudopotential on this center.
    8          1
                                   No pseudopotential on this center.
    9          1
                                   No pseudopotential on this center.
   10          1
                                   No pseudopotential on this center.
   11          9
                                   No pseudopotential on this center.
   12          9
                                   No pseudopotential on this center.
   13          6
                                   No pseudopotential on this center.
   14          1
                                   No pseudopotential on this center.
   15          1
                                   No pseudopotential on this center.
   16          1
                                   No pseudopotential on this center.
 ======================================================================================================
   262 basis functions,   414 primitive gaussians,   272 cartesian basis functions
    37 alpha electrons       37 beta electrons
       nuclear repulsion energy       515.8046145465 Hartrees.
 NAtoms=   16 NActive=   16 NUniq=   16 SFac= 1.00D+00 NAtFMM=   60 NAOKFM=F Big=F
 Integral buffers will be    131072 words long.
 Raffenetti 2 integral format.
 Two-electron integral symmetry is turned off.
 Nuclear repulsion after empirical dispersion term =      515.7961311706 Hartrees.
 ------------------------------------------------------------------------------
 Polarizable Continuum Model (PCM)
 =================================
 Model                : PCM.
 Atomic radii         : UFF (Universal Force Field).
 Polarization charges : Total charges.
 Charge compensation  : None.
 Solution method      : On-the-fly selection.
 Cavity type          : Scaled VdW (van der Waals Surface) (Alpha=1.100).
 Cavity algorithm     : GePol (No added spheres)
                        Default sphere list used, NSphG=   16.
                        Lebedev-Laikov grids with approx.  5.0 points / Ang**2.
                        Smoothing algorithm: York/Karplus (Gamma=1.0000).
                        Polarization charges: spherical gaussians, with
                                              point-specific exponents (IZeta= 3).
                        Self-potential: point-specific (ISelfS= 7).
                        Self-field    : sphere-specific E.n sum rule (ISelfD= 2).
 Solvent              : Toluene, Eps=   2.374100 Eps(inf)=   2.238315
 ------------------------------------------------------------------------------
 Spheres list:
 ISph  on   Nord     Re0    Alpha      Xe            Ye            Ze
    1   C      1    1.9255  1.100      2.651254      1.671534      1.182253
    2   C      2    1.9255  1.100      3.095401      0.415902      0.793176
    3   N      3    1.8300  1.100      2.083741      2.175760      0.072739
    4   N      4    1.8300  1.100      2.161040      1.300290     -0.953702
    5   N      5    1.8300  1.100      2.762930      0.250399     -0.528082
    6   B      6    2.0415  1.100      3.830014     -0.659627      1.596219
    7   C      7    1.9255  1.100      1.454681      3.468306     -0.110116
    8   H      8    1.4430  1.100      1.095702      3.513922     -1.135706
    9   H      9    1.4430  1.100      0.615167      3.578521      0.577518
   10   H     10    1.4430  1.100      2.177989      4.266863      0.061128
   11   F     11    1.6820  1.100      4.191804     -1.820407      1.068879
   12   F     12    1.6820  1.100      4.143438     -0.471632      2.881127
   13   C     13    1.9255  1.100      2.711282      2.416270      2.468108
   14   H     14    1.4430  1.100      3.224500      1.824056      3.222833
   15   H     15    1.4430  1.100      3.246607      3.361565      2.345000
   16   H     16    1.4430  1.100      1.705664      2.644744      2.831210
 ------------------------------------------------------------------------------
 One-electron integrals computed using PRISM.
   1 Symmetry operations used in ECPInt.
 ECPInt:  NShTT=    4095 NPrTT=   15076 LenC2=    3967 LenP2D=   10833.
 LDataN:  DoStor=T MaxTD1= 4 Len=   56
 NBasis=   262 RedAO= T EigKep=  3.83D-06  NBF=   262
 NBsUse=   262 1.00D-06 EigRej= -1.00D+00 NBFU=   262
 ExpMin= 3.15D-02 ExpMax= 1.14D+04 ExpMxC= 1.72D+03 IAcc=3 IRadAn=         5 AccDes= 0.00D+00
 Harris functional with IExCor= 4639 and IRadAn=       5 diagonalized for initial guess.
 HarFok:  IExCor= 4639 AccDes= 0.00D+00 IRadAn=         5 IDoV= 1 UseB2=F ITyADJ=14
 ICtDFT=  3500011 ScaDFX=  1.000000  1.000000  1.000000  1.000000
 FoFCou: FMM=F IPFlag=           0 FMFlag=      100000 FMFlg1=           0
         NFxFlg=           0 DoJE=T BraDBF=F KetDBF=T FulRan=T
         wScrn=  0.000000 ICntrl=       500 IOpCl=  0 I1Cent=   200000004 NGrid=           0
         NMat0=    1 NMatS0=      1 NMatT0=    0 NMatD0=    1 NMtDS0=    0 NMtDT0=    0
 Symmetry not used in FoFCou.
 Requested convergence on RMS density matrix=1.00D-08 within 300 cycles.
 Requested convergence on MAX density matrix=1.00D-06.
 Requested convergence on             energy=1.00D-06.
 No special actions if energy rises.
 Inv3:  Mode=1 IEnd=     6660300.
 Iteration    1 A*A^-1 deviation from unit magnitude is 3.77D-15 for   1477.
 Iteration    1 A*A^-1 deviation from orthogonality  is 2.10D-15 for   1232    775.
 Iteration    1 A^-1*A deviation from unit magnitude is 3.77D-15 for   1477.
 Iteration    1 A^-1*A deviation from orthogonality  is 1.69D-14 for   1397   1396.
 Error on total polarization charges =  0.00783
 SCF Done:  E(RwB97XD) =  -544.922200816     A.U. after   15 cycles
            NFock= 15  Conv=0.47D-08     -V/T= 2.0033

 **********************************************************************

            Population analysis using the SCF Density.

 **********************************************************************

 Alpha  occ. eigenvalues --  -24.82599 -24.82205 -14.53846 -14.50305 -14.46943
 Alpha  occ. eigenvalues --  -10.35952 -10.34350 -10.31074 -10.30684  -6.96376
 Alpha  occ. eigenvalues --   -1.34626  -1.31622  -1.22399  -1.04140  -0.93867
 Alpha  occ. eigenvalues --   -0.85158  -0.83667  -0.74499  -0.68932  -0.67833
 Alpha  occ. eigenvalues --   -0.63346  -0.62289  -0.60849  -0.58598  -0.58469
 Alpha  occ. eigenvalues --   -0.54014  -0.53102  -0.52752  -0.52737  -0.51672
 Alpha  occ. eigenvalues --   -0.51208  -0.50519  -0.48194  -0.43097  -0.38591
 Alpha  occ. eigenvalues --   -0.36769  -0.35471
 Alpha virt. eigenvalues --    0.03308   0.03477   0.05312   0.05360   0.06259
 Alpha virt. eigenvalues --    0.06677   0.07830   0.08598   0.08630   0.09562
 Alpha virt. eigenvalues --    0.10347   0.11092   0.12332   0.13594   0.14316
 Alpha virt. eigenvalues --    0.14592   0.16028   0.16688   0.17293   0.17479
 Alpha virt. eigenvalues --    0.18167   0.18642   0.19388   0.19543   0.19582
 Alpha virt. eigenvalues --    0.20117   0.20264   0.21788   0.21995   0.23119
 Alpha virt. eigenvalues --    0.23443   0.25209   0.25779   0.26501   0.26973
 Alpha virt. eigenvalues --    0.28105   0.28793   0.29556   0.30161   0.30906
 Alpha virt. eigenvalues --    0.31535   0.33073   0.33130   0.34149   0.35281
 Alpha virt. eigenvalues --    0.35508   0.36272   0.37144   0.38167   0.38393
 Alpha virt. eigenvalues --    0.38567   0.39583   0.40720   0.41445   0.42516
 Alpha virt. eigenvalues --    0.43766   0.45419   0.47163   0.47632   0.50114
 Alpha virt. eigenvalues --    0.50430   0.51499   0.52397   0.52694   0.54194
 Alpha virt. eigenvalues --    0.54394   0.56343   0.59142   0.62171   0.63233
 Alpha virt. eigenvalues --    0.64065   0.66974   0.67756   0.69029   0.70241
 Alpha virt. eigenvalues --    0.70421   0.71394   0.71518   0.74114   0.74874
 Alpha virt. eigenvalues --    0.77292   0.77821   0.82588   0.86909   0.87625
 Alpha virt. eigenvalues --    0.88488   0.89731   0.90636   0.91861   0.94257
 Alpha virt. eigenvalues --    0.95225   0.96286   0.96756   1.00662   1.01995
 Alpha virt. eigenvalues --    1.03108   1.06273   1.08723   1.11574   1.11662
 Alpha virt. eigenvalues --    1.14181   1.16505   1.18602   1.24012   1.33000
 Alpha virt. eigenvalues --    1.33413   1.34027   1.34497   1.37207   1.39847
 Alpha virt. eigenvalues --    1.41304   1.43617   1.43686   1.44639   1.47670
 Alpha virt. eigenvalues --    1.49473   1.50527   1.52494   1.54593   1.55503
 Alpha virt. eigenvalues --    1.56795   1.60793   1.62122   1.64935   1.65641
 Alpha virt. eigenvalues --    1.66642   1.67029   1.69685   1.72290   1.75461
 Alpha virt. eigenvalues --    1.77065   1.78343   1.84661   1.86302   1.86397
 Alpha virt. eigenvalues --    1.90585   1.94454   1.97431   1.99053   2.03357
 Alpha virt. eigenvalues --    2.06545   2.07794   2.09514   2.15654   2.19744
 Alpha virt. eigenvalues --    2.19892   2.21764   2.23054   2.27710   2.34059
 Alpha virt. eigenvalues --    2.35891   2.37861   2.38185   2.44645   2.46311
 Alpha virt. eigenvalues --    2.51515   2.53955   2.55835   2.58824   2.59601
 Alpha virt. eigenvalues --    2.61849   2.62901   2.63369   2.67774   2.70730
 Alpha virt. eigenvalues --    2.70859   2.78081   2.78484   2.80097   2.83204
 Alpha virt. eigenvalues --    2.85053   2.86320   2.92427   2.98533   3.05566
 Alpha virt. eigenvalues --    3.06772   3.09780   3.17781   3.23394   3.28026
 Alpha virt. eigenvalues --    3.42333   3.52970   3.61399   3.78800   3.80052
 Alpha virt. eigenvalues --    3.84094   3.85020   3.85610   3.86334   3.87662
 Alpha virt. eigenvalues --    3.89991   3.90388   3.94442   3.95515   4.04509
 Alpha virt. eigenvalues --    4.05965   4.06118   4.08502   4.12571   4.12967
 Alpha virt. eigenvalues --    4.28912   4.29792   4.39711   4.61722   4.66844
 Alpha virt. eigenvalues --    4.74417   4.95104   5.10472   5.75060   6.38654
 Alpha virt. eigenvalues --    6.40018   6.41832   6.51057   6.53327   6.75767
 Alpha virt. eigenvalues --   14.77122  23.87883  24.05824  24.09223  24.21561
 Alpha virt. eigenvalues --   35.54257  35.64453  35.79654  66.92845  66.94258
          Condensed to atoms (all electrons):
               1          2          3          4          5          6
     1  C   12.448344  -5.358956  -0.748659   0.638348  -0.252665  -0.286375
     2  C   -5.358956  12.251745   0.624579  -0.724214   0.445206   0.716374
     3  N   -0.748659   0.624579   7.432594  -0.360447   0.079585   0.051648
     4  N    0.638348  -0.724214  -0.360447   7.099175   0.169207  -0.015486
     5  N   -0.252665   0.445206   0.079585   0.169207   6.732946  -0.098411
     6  B   -0.286375   0.716374   0.051648  -0.015486  -0.098411   3.603056
     7  C   -0.062853   0.032090   0.145971  -0.003502   0.022127   0.004910
     8  H    0.041163  -0.013269  -0.080285   0.044313  -0.001899  -0.001542
     9  H    0.005598   0.026890  -0.016976  -0.025149   0.001964   0.000389
    10  H    0.004513   0.022318  -0.016988  -0.025171   0.002232   0.000367
    11  F    0.052614  -0.025572   0.004458  -0.001844   0.013792   0.341177
    12  F   -0.012584  -0.079831  -0.005568   0.009709  -0.001368   0.417534
    13  C   -0.443709  -1.207729  -0.389382   0.269392   0.019345  -0.067606
    14  H   -0.144099   0.009069   0.012651   0.002107   0.002213  -0.012859
    15  H   -0.009310  -0.040313  -0.003895   0.007740   0.000495  -0.003229
    16  H   -0.012278  -0.045597  -0.002307   0.007425   0.000968  -0.003361
               7          8          9         10         11         12
     1  C   -0.062853   0.041163   0.005598   0.004513   0.052614  -0.012584
     2  C    0.032090  -0.013269   0.026890   0.022318  -0.025572  -0.079831
     3  N    0.145971  -0.080285  -0.016976  -0.016988   0.004458  -0.005568
     4  N   -0.003502   0.044313  -0.025149  -0.025171  -0.001844   0.009709
     5  N    0.022127  -0.001899   0.001964   0.002232   0.013792  -0.001368
     6  B    0.004910  -0.001542   0.000389   0.000367   0.341177   0.417534
     7  C    5.238906   0.389418   0.393757   0.399694   0.000182  -0.000025
     8  H    0.389418   0.439378  -0.017448  -0.015662   0.000131  -0.000095
     9  H    0.393757  -0.017448   0.538157  -0.068489   0.000056  -0.000002
    10  H    0.399694  -0.015662  -0.068489   0.531383   0.000052  -0.000004
    11  F    0.000182   0.000131   0.000056   0.000052   8.698987  -0.064912
    12  F   -0.000025  -0.000095  -0.000002  -0.000004  -0.064912   8.714099
    13  C   -0.185429  -0.000370  -0.037506  -0.038133  -0.007000   0.053904
    14  H   -0.004228   0.000082   0.000414   0.000259   0.002240   0.011428
    15  H    0.007692  -0.000577   0.002268  -0.003730   0.000128   0.000153
    16  H    0.005066  -0.000738  -0.003937   0.003221   0.000101   0.000014
              13         14         15         16
     1  C   -0.443709  -0.144099  -0.009310  -0.012278
     2  C   -1.207729   0.009069  -0.040313  -0.045597
     3  N   -0.389382   0.012651  -0.003895  -0.002307
     4  N    0.269392   0.002107   0.007740   0.007425
     5  N    0.019345   0.002213   0.000495   0.000968
     6  B   -0.067606  -0.012859  -0.003229  -0.003361
     7  C   -0.185429  -0.004228   0.007692   0.005066
     8  H   -0.000370   0.000082  -0.000577  -0.000738
     9  H   -0.037506   0.000414   0.002268  -0.003937
    10  H   -0.038133   0.000259  -0.003730   0.003221
    11  F   -0.007000   0.002240   0.000128   0.000101
    12  F    0.053904   0.011428   0.000153   0.000014
    13  C    7.442440   0.484198   0.390364   0.398092
    14  H    0.484198   0.461371  -0.018914  -0.017357
    15  H    0.390364  -0.018914   0.547622  -0.065306
    16  H    0.398092  -0.017357  -0.065306   0.543300
 Mulliken charges:
               1
     1  C    0.140908
     2  C   -0.632791
     3  N    0.273020
     4  N   -0.091604
     5  N   -0.135736
     6  B    0.353413
     7  C   -0.383776
     8  H    0.217399
     9  H    0.200011
    10  H    0.204138
    11  F   -0.014590
    12  F   -0.042451
    13  C   -0.680872
    14  H    0.211424
    15  H    0.188812
    16  H    0.192694
 Sum of Mulliken charges =  -0.00000
 Mulliken charges with hydrogens summed into heavy atoms:
               1
     1  C    0.140908
     2  C   -0.632791
     3  N    0.273020
     4  N   -0.091604
     5  N   -0.135736
     6  B    0.353413
     7  C    0.237773
    11  F   -0.014590
    12  F   -0.042451
    13  C   -0.087942
 Electronic spatial extent (au):  <R**2>=           4189.7191
 Charge=              0.0000 electrons
 Dipole moment (field-independent basis, Debye):
    X=             -1.8976    Y=              6.2791    Z=              2.9830  Tot=              7.2060
 Quadrupole moment (field-independent basis, Debye-Ang):
   XX=            -65.5633   YY=            -40.2383   ZZ=            -58.8716
   XY=             14.5353   XZ=              4.9377   YZ=              6.3345
 Traceless Quadrupole moment (field-independent basis, Debye-Ang):
   XX=            -10.6723   YY=             14.6528   ZZ=             -3.9805
   XY=             14.5353   XZ=              4.9377   YZ=              6.3345
 Octapole moment (field-independent basis, Debye-Ang**2):
  XXX=           -516.0619  YYY=           -105.3911  ZZZ=           -142.8648  XYY=           -137.4458
  XXY=            -14.1433  XXZ=            -44.1406  XZZ=           -174.9189  YZZ=            -46.7576
  YYZ=            -37.7446  XYZ=             19.3914
 Hexadecapole moment (field-independent basis, Debye-Ang**3):
 XXXX=          -3176.5091 YYYY=          -1055.8185 ZZZZ=           -845.5958 XXXY=           -131.9930
 XXXZ=           -543.7897 YYYX=           -142.0221 YYYZ=            -48.1123 ZZZX=           -546.4887
 ZZZY=            -37.2172 XXYY=           -693.2456 XXZZ=           -716.1813 YYZZ=           -322.2322
 XXYZ=             41.7656 YYXZ=           -147.2476 ZZXY=            -60.1321
 N-N= 5.157961311706D+02 E-N=-2.311861502585D+03  KE= 5.431175768877D+02
 Breneman (CHELPG) radii used.
 Generate Potential Derived Charges using the Breneman model, NDens= 1.
 Grid spacing= 0.300 Box extension= 2.800
 NStep X,Y,Z=   31     40     35   Total possible points=       43400
 Number of Points to Fit=   11076

 **********************************************************************

            Electrostatic Properties Using The SCF Density.

 **********************************************************************

       Atomic Center    1 is at   2.651254  1.671534  1.182253
       Atomic Center    2 is at   3.095401  0.415902  0.793176
       Atomic Center    3 is at   2.083741  2.175760  0.072739
       Atomic Center    4 is at   2.161040  1.300290 -0.953702
       Atomic Center    5 is at   2.762930  0.250399 -0.528082
       Atomic Center    6 is at   3.830014 -0.659627  1.596219
       Atomic Center    7 is at   1.454681  3.468306 -0.110116
       Atomic Center    8 is at   1.095702  3.513922 -1.135706
       Atomic Center    9 is at   0.615167  3.578521  0.577518
       Atomic Center   10 is at   2.177989  4.266863  0.061128
       Atomic Center   11 is at   4.191804 -1.820407  1.068879
       Atomic Center   12 is at   4.143438 -0.471632  2.881127
       Atomic Center   13 is at   2.711282  2.416270  2.468108
       Atomic Center   14 is at   3.224500  1.824056  3.222833
       Atomic Center   15 is at   3.246607  3.361565  2.345000
       Atomic Center   16 is at   1.705664  2.644744  2.831210
   11076 points will be used for fitting atomic charges
 Fitting point charges to electrostatic potential
 Charges from ESP fit, RMS=   0.00414 RRMS=   0.15162:
 ESP charges:
               1
     1  C    0.037860
     2  C   -0.079977
     3  N    0.490679
     4  N   -0.333358
     5  N   -0.297686
     6  B    0.771088
     7  C   -0.340576
     8  H    0.123410
     9  H    0.137356
    10  H    0.137604
    11  F   -0.337505
    12  F   -0.329654
    13  C   -0.381059
    14  H    0.148383
    15  H    0.126991
    16  H    0.126445
 Sum of ESP charges =   0.00000
 ESP charges with hydrogens summed into heavy atoms:
               1
     1  C    0.037860
     2  C   -0.079977
     3  N    0.490679
     4  N   -0.333358
     5  N   -0.297686
     6  B    0.771088
     7  C    0.057794
    11  F   -0.337505
    12  F   -0.329654
    13  C    0.020760
 Charge=   0.00000 Dipole=    -1.9105     6.2114     2.8388 Tot=     7.0916
 -----------------------------------------------------------------

              Electrostatic Properties (Atomic Units)

 -----------------------------------------------------------------
    Center     Electric         -------- Electric Field --------
               Potential          X             Y             Z
 -----------------------------------------------------------------
    1 Atom    -14.696731
    2 Atom    -14.759000
    3 Atom    -18.285581
    4 Atom    -18.349540
    5 Atom    -18.384684
    6 Atom    -11.350076
    7 Atom    -14.699035
    8 Atom     -1.064865
    9 Atom     -1.059894
   10 Atom     -1.060296
   11 Atom    -26.597836
   12 Atom    -26.585263
   13 Atom    -14.731953
   14 Atom     -1.077371
   15 Atom     -1.066314
   16 Atom     -1.066331
 -----------------------------------------------------------------
 Unable to Open any file for archive entry.
 1\1\GINC-IRENE4722\SP\RwB97XD\GenECP\C4H6B1F2N3\PENASFRA\09-Apr-2024\0
 \\# wb97xd/genecp scrf=(solvent=toluene,pcm) nosymm pop=(chelpg) scfcy
 c=300\\f_dimetriazole_chelpg\\0,1\C,0,2.651254,1.671534,1.182253\C,0,3
 .095401,0.415902,0.793176\N,0,2.083741,2.17576,0.072739\N,0,2.16104,1.
 30029,-0.953702\N,0,2.76293,0.250399,-0.528082\B,0,3.830014,-0.659627,
 1.596219\C,0,1.454681,3.468306,-0.110116\H,0,1.095702,3.513922,-1.1357
 06\H,0,0.615167,3.578521,0.577518\H,0,2.177989,4.266863,0.061128\F,0,4
 .191804,-1.820407,1.068879\F,0,4.143438,-0.471632,2.881127\C,0,2.71128
 2,2.41627,2.468108\H,0,3.2245,1.824056,3.222833\H,0,3.246607,3.361565,
 2.345\H,0,1.705664,2.644744,2.83121\\Version=AS64L-G16RevC.02\HF=-544.
 9222008\RMSD=4.718e-09\Dipole=-0.7465659,2.4704065,1.1735829\Quadrupol
 e=-7.9345631,10.8939892,-2.9594261,10.8066743,3.6710805,4.7095617\PG=C
 01 [X(C4H6B1F2N3)]\\@
 The archive entry for this job was punched.


 IF AT FIRST YOU DON'T SUCCEED, TRY, TRY AGAIN.
 THEN GIVE UP;
 THERE'S NO USE BEING A DAMN FOOL ABOUT IT.

                                 -- W. C. FIELDS
 Job cpu time:       0 days  0 hours 24 minutes  2.6 seconds.
 Elapsed time:       0 days  0 hours  0 minutes 17.1 seconds.
 File lengths (MBytes):  RWF=     79 Int=      0 D2E=      0 Chk=      6 Scr=      1
 Normal termination of Gaussian 16 at Tue Apr  9 18:20:13 2024.
