 Entering Gaussian System, Link 0=/ccc/products/gaussian-16-C.02/system/default/g16/g16
 Input=f_fmetriazole_chelpg.gjf
 Output=f_fmetriazole_chelpg.log
 Initial command:
 /ccc/products/gaussian-16-C.02/system/default/g16/l1.exe "/ccc/scratch/cont003/gen7343/penasfra/flp/b-n_flp/f_fmetriazole/Reactant/Gau-559244.inp" -scrdir="/ccc/scratch/cont003/gen7343/penasfra/flp/b-n_flp/f_fmetriazole/Reactant/"
 Entering Link 1 = /ccc/products/gaussian-16-C.02/system/default/g16/l1.exe PID=    559293.
  
 Copyright (c) 1988-2021, Gaussian, Inc.  All Rights Reserved.
  
 This is part of the Gaussian(R) 16 program.  It is based on
 the Gaussian(R) 09 system (copyright 2009, Gaussian, Inc.),
 the Gaussian(R) 03 system (copyright 2003, Gaussian, Inc.),
 the Gaussian(R) 98 system (copyright 1998, Gaussian, Inc.),
 the Gaussian(R) 94 system (copyright 1995, Gaussian, Inc.),
 the Gaussian 92(TM) system (copyright 1992, Gaussian, Inc.),
 the Gaussian 90(TM) system (copyright 1990, Gaussian, Inc.),
 the Gaussian 88(TM) system (copyright 1988, Gaussian, Inc.),
 the Gaussian 86(TM) system (copyright 1986, Carnegie Mellon
 University), and the Gaussian 82(TM) system (copyright 1983,
 Carnegie Mellon University). Gaussian is a federally registered
 trademark of Gaussian, Inc.
  
 This software contains proprietary and confidential information,
 including trade secrets, belonging to Gaussian, Inc.
  
 This software is provided under written license and may be
 used, copied, transmitted, or stored only in accord with that
 written license.
  
 The following legend is applicable only to US Government
 contracts under FAR:
  
                    RESTRICTED RIGHTS LEGEND
  
 Use, reproduction and disclosure by the US Government is
 subject to restrictions as set forth in subparagraphs (a)
 and (c) of the Commercial Computer Software - Restricted
 Rights clause in FAR 52.227-19.
  
 Gaussian, Inc.
 340 Quinnipiac St., Bldg. 40, Wallingford CT 06492
  
  
 ---------------------------------------------------------------
 Warning -- This program may not be used in any manner that
 competes with the business of Gaussian, Inc. or will provide
 assistance to any competitor of Gaussian, Inc.  The licensee
 of this program is prohibited from giving any competitor of
 Gaussian, Inc. access to this program.  By using this program,
 the user acknowledges that Gaussian, Inc. is engaged in the
 business of creating and licensing software in the field of
 computational chemistry and represents and warrants to the
 licensee that it is not a competitor of Gaussian, Inc. and that
 it will not use this program in any manner prohibited above.
 ---------------------------------------------------------------
  

 Cite this work as:
 Gaussian 16, Revision C.02,
 M. J. Frisch, G. W. Trucks, H. B. Schlegel, G. E. Scuseria, 
 M. A. Robb, J. R. Cheeseman, G. Scalmani, V. Barone, 
 G. A. Petersson, H. Nakatsuji, X. Li, M. Caricato, A. V. Marenich, 
 J. Bloino, B. G. Janesko, R. Gomperts, B. Mennucci, H. P. Hratchian, 
 J. V. Ortiz, A. F. Izmaylov, J. L. Sonnenberg, D. Williams-Young, 
 F. Ding, F. Lipparini, F. Egidi, J. Goings, B. Peng, A. Petrone, 
 T. Henderson, D. Ranasinghe, V. G. Zakrzewski, J. Gao, N. Rega, 
 G. Zheng, W. Liang, M. Hada, M. Ehara, K. Toyota, R. Fukuda, 
 J. Hasegawa, M. Ishida, T. Nakajima, Y. Honda, O. Kitao, H. Nakai, 
 T. Vreven, K. Throssell, J. A. Montgomery, Jr., J. E. Peralta, 
 F. Ogliaro, M. J. Bearpark, J. J. Heyd, E. N. Brothers, K. N. Kudin, 
 V. N. Staroverov, T. A. Keith, R. Kobayashi, J. Normand, 
 K. Raghavachari, A. P. Rendell, J. C. Burant, S. S. Iyengar, 
 J. Tomasi, M. Cossi, J. M. Millam, M. Klene, C. Adamo, R. Cammi, 
 J. W. Ochterski, R. L. Martin, K. Morokuma, O. Farkas, 
 J. B. Foresman, and D. J. Fox, Gaussian, Inc., Wallingford CT, 2019.
 
 ******************************************
 Gaussian 16:  AS64L-G16RevC.02  7-Dec-2021
                10-Apr-2024 
 ******************************************
 %nprocshared=128
 Will use up to  128 processors via shared memory.
 %mem=30GB
 %chk=f_fmetriazole_chelpg.chk
 ----------------------------------------------------------------------
 # wb97xd/genecp scrf=(solvent=toluene,pcm) nosymm pop=(chelpg) scfcyc=
 300
 ----------------------------------------------------------------------
 1/38=1,172=1/1;
 2/12=2,15=1,17=6,18=5,40=1/2;
 3/5=7,11=2,16=1,17=8,25=1,30=1,70=2201,72=13,74=-58/1,2,3;
 4//1;
 5/5=2,7=300,38=5,53=13/2;
 6/7=2,8=2,9=2,10=2,15=8,20=3,28=1/1,2;
 99/5=1,9=1/99;
 --------------------
 f_fmetriazole_chelpg
 --------------------
 Symbolic Z-matrix:
 Charge =  0 Multiplicity = 1
 C                     2.65914   1.6536    1.13661 
 C                     3.1544    0.4226    0.77006 
 N                     2.03268   2.16137   0.07375 
 N                     2.12207   1.28009  -0.95102 
 N                     2.78214   0.25725  -0.54112 
 B                     3.95426  -0.60975   1.57214 
 C                     1.34011   3.42952  -0.06358 
 H                     0.96692   3.4767   -1.08391 
 H                     0.50807   3.47766   0.63838 
 H                     2.03058   4.25276   0.11747 
 F                     4.34748  -1.75566   1.0414 
 F                     4.2807   -0.38215   2.84065 
 F                     2.71439   2.31883   2.26379 
 
                          Input orientation:                          
 ---------------------------------------------------------------------
 Center     Atomic      Atomic             Coordinates (Angstroms)
 Number     Number       Type             X           Y           Z
 ---------------------------------------------------------------------
      1          6           0        2.659136    1.653603    1.136614
      2          6           0        3.154404    0.422603    0.770056
      3          7           0        2.032685    2.161372    0.073752
      4          7           0        2.122065    1.280090   -0.951020
      5          7           0        2.782144    0.257254   -0.541119
      6          5           0        3.954260   -0.609745    1.572143
      7          6           0        1.340111    3.429523   -0.063580
      8          1           0        0.966919    3.476696   -1.083912
      9          1           0        0.508071    3.477661    0.638384
     10          1           0        2.030585    4.252759    0.117465
     11          9           0        4.347476   -1.755661    1.041403
     12          9           0        4.280697   -0.382145    2.840647
     13          9           0        2.714387    2.318830    2.263790
 ---------------------------------------------------------------------
                    Distance matrix (angstroms):
                    1          2          3          4          5
     1  C    0.000000
     2  C    1.376596   0.000000
     3  N    1.334146   2.183211   0.000000
     4  N    2.187732   2.182455   1.354550   0.000000
     5  N    2.186255   1.372989   2.136684   1.284491   0.000000
     6  B    2.643818   1.532598   3.690083   3.646199   2.567376
     7  C    2.516781   3.609456   1.451456   2.453378   3.517214
     8  H    3.334367   4.189245   2.050883   2.485377   3.735569
     9  H    2.864001   4.043983   2.091859   3.156026   4.115052
    10  H    2.861705   4.044619   2.091845   3.160188   4.118572
    11  F    3.805606   2.498376   4.651640   4.258872   3.001078
    12  F    3.110861   2.490683   4.379354   4.668989   3.753776
    13  F    1.310002   2.453677   2.299082   3.429990   3.481695
                    6          7          8          9         10
     6  B    0.000000
     7  C    5.081835   0.000000
     8  H    5.716453   1.087463   0.000000
     9  H    5.427247   1.089661   1.782371   0.000000
    10  H    5.427758   1.089610   1.782405   1.786108   0.000000
    11  F    1.322659   6.095192   6.581997   6.503162   6.505594
    12  F    1.329461   5.622312   6.424480   5.829303   5.827612
    13  F    3.254568   2.922144   3.949862   2.975343   2.968902
                   11         12         13
    11  F    0.000000
    12  F    2.264572   0.000000
    13  F    4.556609   3.175115   0.000000
 Symmetry turned off by external request.
 Stoichiometry    C3H3BF3N3
 Framework group  C1[X(C3H3BF3N3)]
 Deg. of freedom    33
 Full point group                 C1      NOp   1
 Rotational constants (GHZ):           2.6816385           0.9259759           0.6913308
 General basis read from cards:  (5D, 7F)
 ======================================================================================================
                                       Pseudopotential Parameters
 ======================================================================================================
  Center     Atomic      Valence      Angular      Power
  Number     Number     Electrons     Momentum     of R      Exponent        Coefficient   SO-Coeffient
 ======================================================================================================
    1          6
                                   No pseudopotential on this center.
    2          6
                                   No pseudopotential on this center.
    3          7
                                   No pseudopotential on this center.
    4          7
                                   No pseudopotential on this center.
    5          7
                                   No pseudopotential on this center.
    6          5
                                   No pseudopotential on this center.
    7          6
                                   No pseudopotential on this center.
    8          1
                                   No pseudopotential on this center.
    9          1
                                   No pseudopotential on this center.
   10          1
                                   No pseudopotential on this center.
   11          9
                                   No pseudopotential on this center.
   12          9
                                   No pseudopotential on this center.
   13          9
                                   No pseudopotential on this center.
 ======================================================================================================
   241 basis functions,   387 primitive gaussians,   251 cartesian basis functions
    37 alpha electrons       37 beta electrons
       nuclear repulsion energy       517.9145953030 Hartrees.
 NAtoms=   13 NActive=   13 NUniq=   13 SFac= 1.00D+00 NAtFMM=   60 NAOKFM=F Big=F
 Integral buffers will be    131072 words long.
 Raffenetti 2 integral format.
 Two-electron integral symmetry is turned off.
 Nuclear repulsion after empirical dispersion term =      517.9090058747 Hartrees.
 ------------------------------------------------------------------------------
 Polarizable Continuum Model (PCM)
 =================================
 Model                : PCM.
 Atomic radii         : UFF (Universal Force Field).
 Polarization charges : Total charges.
 Charge compensation  : None.
 Solution method      : On-the-fly selection.
 Cavity type          : Scaled VdW (van der Waals Surface) (Alpha=1.100).
 Cavity algorithm     : GePol (No added spheres)
                        Default sphere list used, NSphG=   13.
                        Lebedev-Laikov grids with approx.  5.0 points / Ang**2.
                        Smoothing algorithm: York/Karplus (Gamma=1.0000).
                        Polarization charges: spherical gaussians, with
                                              point-specific exponents (IZeta= 3).
                        Self-potential: point-specific (ISelfS= 7).
                        Self-field    : sphere-specific E.n sum rule (ISelfD= 2).
 Solvent              : Toluene, Eps=   2.374100 Eps(inf)=   2.238315
 ------------------------------------------------------------------------------
 Spheres list:
 ISph  on   Nord     Re0    Alpha      Xe            Ye            Ze
    1   C      1    1.9255  1.100      2.659136      1.653603      1.136614
    2   C      2    1.9255  1.100      3.154404      0.422603      0.770056
    3   N      3    1.8300  1.100      2.032685      2.161372      0.073752
    4   N      4    1.8300  1.100      2.122065      1.280090     -0.951020
    5   N      5    1.8300  1.100      2.782144      0.257254     -0.541119
    6   B      6    2.0415  1.100      3.954260     -0.609745      1.572143
    7   C      7    1.9255  1.100      1.340111      3.429523     -0.063580
    8   H      8    1.4430  1.100      0.966919      3.476696     -1.083912
    9   H      9    1.4430  1.100      0.508071      3.477661      0.638384
   10   H     10    1.4430  1.100      2.030585      4.252759      0.117465
   11   F     11    1.6820  1.100      4.347476     -1.755661      1.041403
   12   F     12    1.6820  1.100      4.280697     -0.382145      2.840647
   13   F     13    1.6820  1.100      2.714387      2.318830      2.263790
 ------------------------------------------------------------------------------
 One-electron integrals computed using PRISM.
   1 Symmetry operations used in ECPInt.
 ECPInt:  NShTT=    2850 NPrTT=   11665 LenC2=    2718 LenP2D=    7974.
 LDataN:  DoStor=T MaxTD1= 4 Len=   56
 NBasis=   241 RedAO= T EigKep=  1.12D-05  NBF=   241
 NBsUse=   241 1.00D-06 EigRej= -1.00D+00 NBFU=   241
 ExpMin= 3.15D-02 ExpMax= 1.14D+04 ExpMxC= 1.72D+03 IAcc=3 IRadAn=         5 AccDes= 0.00D+00
 Harris functional with IExCor= 4639 and IRadAn=       5 diagonalized for initial guess.
 HarFok:  IExCor= 4639 AccDes= 0.00D+00 IRadAn=         5 IDoV= 1 UseB2=F ITyADJ=14
 ICtDFT=  3500011 ScaDFX=  1.000000  1.000000  1.000000  1.000000
 FoFCou: FMM=F IPFlag=           0 FMFlag=      100000 FMFlg1=           0
         NFxFlg=           0 DoJE=T BraDBF=F KetDBF=T FulRan=T
         wScrn=  0.000000 ICntrl=       500 IOpCl=  0 I1Cent=   200000004 NGrid=           0
         NMat0=    1 NMatS0=      1 NMatT0=    0 NMatD0=    1 NMtDS0=    0 NMtDT0=    0
 Symmetry not used in FoFCou.
 Requested convergence on RMS density matrix=1.00D-08 within 300 cycles.
 Requested convergence on MAX density matrix=1.00D-06.
 Requested convergence on             energy=1.00D-06.
 No special actions if energy rises.
 Inv3:  Mode=1 IEnd=     5922075.
 Iteration    1 A*A^-1 deviation from unit magnitude is 4.44D-15 for   1394.
 Iteration    1 A*A^-1 deviation from orthogonality  is 2.16D-15 for   1394    659.
 Iteration    1 A^-1*A deviation from unit magnitude is 4.22D-15 for   1394.
 Iteration    1 A^-1*A deviation from orthogonality  is 3.23D-14 for   1054   1018.
 Error on total polarization charges =  0.00651
 SCF Done:  E(RwB97XD) =  -604.829942749     A.U. after   15 cycles
            NFock= 15  Conv=0.54D-08     -V/T= 2.0030

 **********************************************************************

            Population analysis using the SCF Density.

 **********************************************************************

 Alpha  occ. eigenvalues --  -24.88230 -24.83161 -24.82957 -14.55595 -14.51838
 Alpha  occ. eigenvalues --  -14.48572 -10.44685 -10.35264 -10.32484  -6.97394
 Alpha  occ. eigenvalues --   -1.40683  -1.35314  -1.32395  -1.24116  -1.05538
 Alpha  occ. eigenvalues --   -0.93845  -0.86518  -0.77724  -0.74508  -0.69421
 Alpha  occ. eigenvalues --   -0.67705  -0.64603  -0.63818  -0.62272  -0.60870
 Alpha  occ. eigenvalues --   -0.59222  -0.58482  -0.55966  -0.53701  -0.53130
 Alpha  occ. eigenvalues --   -0.52966  -0.52093  -0.50096  -0.44862  -0.40120
 Alpha  occ. eigenvalues --   -0.37872  -0.36923
 Alpha virt. eigenvalues --    0.02640   0.03684   0.04526   0.05642   0.07169
 Alpha virt. eigenvalues --    0.07171   0.08445   0.08556   0.08841   0.11441
 Alpha virt. eigenvalues --    0.11681   0.13023   0.13825   0.15171   0.15800
 Alpha virt. eigenvalues --    0.16571   0.17061   0.17941   0.18250   0.18640
 Alpha virt. eigenvalues --    0.19536   0.19576   0.20802   0.22705   0.23463
 Alpha virt. eigenvalues --    0.23903   0.25208   0.25256   0.26050   0.27651
 Alpha virt. eigenvalues --    0.28744   0.29789   0.30757   0.31464   0.31838
 Alpha virt. eigenvalues --    0.32519   0.33198   0.34413   0.35232   0.35866
 Alpha virt. eigenvalues --    0.36809   0.37450   0.37475   0.39116   0.39593
 Alpha virt. eigenvalues --    0.40616   0.40650   0.42462   0.42779   0.43952
 Alpha virt. eigenvalues --    0.45620   0.46539   0.50219   0.50285   0.52533
 Alpha virt. eigenvalues --    0.52803   0.53370   0.53929   0.56586   0.57346
 Alpha virt. eigenvalues --    0.61796   0.64266   0.65036   0.66610   0.67309
 Alpha virt. eigenvalues --    0.69014   0.69267   0.69635   0.71932   0.72044
 Alpha virt. eigenvalues --    0.76841   0.82320   0.85326   0.86223   0.86877
 Alpha virt. eigenvalues --    0.89871   0.90021   0.91312   0.94118   0.96155
 Alpha virt. eigenvalues --    0.96859   0.99989   1.00990   1.02118   1.04995
 Alpha virt. eigenvalues --    1.07225   1.09490   1.11031   1.20373   1.22691
 Alpha virt. eigenvalues --    1.26957   1.31747   1.32388   1.33125   1.33716
 Alpha virt. eigenvalues --    1.36229   1.38429   1.40453   1.42917   1.43341
 Alpha virt. eigenvalues --    1.45633   1.46497   1.46604   1.50540   1.50839
 Alpha virt. eigenvalues --    1.52656   1.55407   1.57420   1.58979   1.60740
 Alpha virt. eigenvalues --    1.63973   1.67890   1.68813   1.72109   1.73598
 Alpha virt. eigenvalues --    1.76179   1.81524   1.83958   1.88865   1.89127
 Alpha virt. eigenvalues --    1.95869   2.01019   2.03771   2.05922   2.09610
 Alpha virt. eigenvalues --    2.11402   2.14639   2.17000   2.18481   2.21602
 Alpha virt. eigenvalues --    2.23183   2.34138   2.34770   2.36613   2.45486
 Alpha virt. eigenvalues --    2.47181   2.50946   2.53647   2.58455   2.62627
 Alpha virt. eigenvalues --    2.64146   2.65701   2.71710   2.72045   2.80272
 Alpha virt. eigenvalues --    2.81101   2.81301   2.87317   2.96415   3.00695
 Alpha virt. eigenvalues --    3.05837   3.07017   3.15721   3.24158   3.35288
 Alpha virt. eigenvalues --    3.50304   3.58679   3.74848   3.76258   3.80229
 Alpha virt. eigenvalues --    3.81829   3.83491   3.85707   3.86240   3.86832
 Alpha virt. eigenvalues --    3.88440   3.91643   3.96596   4.00768   4.04255
 Alpha virt. eigenvalues --    4.05334   4.07495   4.08737   4.10601   4.11909
 Alpha virt. eigenvalues --    4.19881   4.28814   4.37182   4.53909   4.65537
 Alpha virt. eigenvalues --    4.71562   4.83812   4.99192   5.11467   5.72859
 Alpha virt. eigenvalues --    6.36877   6.37975   6.39511   6.40296   6.48841
 Alpha virt. eigenvalues --    6.51492   6.55534   6.74378   6.85972  14.75925
 Alpha virt. eigenvalues --   23.81704  24.04172  24.18733  35.51830  35.61914
 Alpha virt. eigenvalues --   35.77242  66.90302  66.91916  66.93182
          Condensed to atoms (all electrons):
               1          2          3          4          5          6
     1  C    9.478843  -3.135782   0.397235  -0.579374   0.100239  -0.394035
     2  C   -3.135782   8.780839  -0.711745   0.769064   0.067808   0.726273
     3  N    0.397235  -0.711745   7.401305  -0.383752   0.183128  -0.007448
     4  N   -0.579374   0.769064  -0.383752   7.261811  -0.037157   0.048768
     5  N    0.100239   0.067808   0.183128  -0.037157   6.885045  -0.121371
     6  B   -0.394035   0.726273  -0.007448   0.048768  -0.121371   3.612510
     7  C   -0.208006   0.048876   0.116014   0.021619   0.012105   0.001661
     8  H    0.040988  -0.027214  -0.076391   0.046494   0.002882  -0.001783
     9  H    0.011465  -0.026028  -0.005349  -0.034869   0.006342  -0.000723
    10  H    0.012054  -0.026403  -0.005741  -0.034158   0.006253  -0.000731
    11  F    0.101058  -0.083677   0.002821  -0.006125   0.023285   0.342163
    12  F   -0.044642   0.015827   0.000111   0.007467  -0.001982   0.431935
    13  F    0.333730  -0.144184  -0.057893   0.013142   0.009586  -0.016904
               7          8          9         10         11         12
     1  C   -0.208006   0.040988   0.011465   0.012054   0.101058  -0.044642
     2  C    0.048876  -0.027214  -0.026028  -0.026403  -0.083677   0.015827
     3  N    0.116014  -0.076391  -0.005349  -0.005741   0.002821   0.000111
     4  N    0.021619   0.046494  -0.034869  -0.034158  -0.006125   0.007467
     5  N    0.012105   0.002882   0.006342   0.006253   0.023285  -0.001982
     6  B    0.001661  -0.001783  -0.000723  -0.000731   0.342163   0.431935
     7  C    5.240957   0.385407   0.395526   0.395298   0.000455   0.001505
     8  H    0.385407   0.450947  -0.018151  -0.018208   0.000257  -0.000094
     9  H    0.395526  -0.018151   0.511582  -0.051497   0.000061  -0.000031
    10  H    0.395298  -0.018208  -0.051497   0.512098   0.000061  -0.000027
    11  F    0.000455   0.000257   0.000061   0.000061   8.683431  -0.060721
    12  F    0.001505  -0.000094  -0.000031  -0.000027  -0.060721   8.684891
    13  F   -0.002505  -0.001895  -0.002215  -0.002197   0.000594   0.003360
              13
     1  C    0.333730
     2  C   -0.144184
     3  N   -0.057893
     4  N    0.013142
     5  N    0.009586
     6  B   -0.016904
     7  C   -0.002505
     8  H   -0.001895
     9  H   -0.002215
    10  H   -0.002197
    11  F    0.000594
    12  F    0.003360
    13  F    8.991911
 Mulliken charges:
               1
     1  C   -0.113773
     2  C   -0.253655
     3  N    0.147705
     4  N   -0.092931
     5  N   -0.136164
     6  B    0.379683
     7  C   -0.408914
     8  H    0.216760
     9  H    0.213887
    10  H    0.213196
    11  F   -0.003664
    12  F   -0.037601
    13  F   -0.124530
 Sum of Mulliken charges =  -0.00000
 Mulliken charges with hydrogens summed into heavy atoms:
               1
     1  C   -0.113773
     2  C   -0.253655
     3  N    0.147705
     4  N   -0.092931
     5  N   -0.136164
     6  B    0.379683
     7  C    0.234929
    11  F   -0.003664
    12  F   -0.037601
    13  F   -0.124530
 Electronic spatial extent (au):  <R**2>=           4154.9489
 Charge=             -0.0000 electrons
 Dipole moment (field-independent basis, Debye):
    X=             -2.1990    Y=              5.1088    Z=              1.1194  Tot=              5.6735
 Quadrupole moment (field-independent basis, Debye-Ang):
   XX=            -63.9719   YY=            -40.3721   ZZ=            -62.1896
   XY=             10.0364   XZ=             -0.2177   YZ=              0.2898
 Traceless Quadrupole moment (field-independent basis, Debye-Ang):
   XX=             -8.4607   YY=             15.1391   ZZ=             -6.6784
   XY=             10.0364   XZ=             -0.2177   YZ=              0.2898
 Octapole moment (field-independent basis, Debye-Ang**2):
  XXX=           -501.3905  YYY=            -95.1959  ZZZ=           -136.0268  XYY=           -143.5231
  XXY=            -21.2419  XXZ=            -50.9905  XZZ=           -185.6375  YZZ=            -57.8596
  YYZ=            -43.5866  XYZ=              2.1972
 Hexadecapole moment (field-independent basis, Debye-Ang**3):
 XXXX=          -3148.8210 YYYY=           -916.7319 ZZZZ=           -729.1152 XXXY=           -106.3337
 XXXZ=           -531.5976 YYYX=           -123.9743 YYYZ=            -35.9108 ZZZX=           -538.5521
 ZZZY=            -34.0593 XXYY=           -700.9507 XXZZ=           -733.3834 YYZZ=           -307.6007
 XXYZ=              7.6693 YYXZ=           -166.6777 ZZXY=            -88.5915
 N-N= 5.179090058747D+02 E-N=-2.461765062904D+03  KE= 6.030487652445D+02
 Breneman (CHELPG) radii used.
 Generate Potential Derived Charges using the Breneman model, NDens= 1.
 Grid spacing= 0.300 Box extension= 2.800
 NStep X,Y,Z=   32     40     33   Total possible points=       42240
 Number of Points to Fit=    9934

 **********************************************************************

            Electrostatic Properties Using The SCF Density.

 **********************************************************************

       Atomic Center    1 is at   2.659136  1.653603  1.136614
       Atomic Center    2 is at   3.154404  0.422603  0.770056
       Atomic Center    3 is at   2.032685  2.161372  0.073752
       Atomic Center    4 is at   2.122065  1.280090 -0.951020
       Atomic Center    5 is at   2.782144  0.257254 -0.541119
       Atomic Center    6 is at   3.954260 -0.609745  1.572143
       Atomic Center    7 is at   1.340111  3.429523 -0.063580
       Atomic Center    8 is at   0.966919  3.476696 -1.083912
       Atomic Center    9 is at   0.508071  3.477661  0.638384
       Atomic Center   10 is at   2.030585  4.252759  0.117465
       Atomic Center   11 is at   4.347476 -1.755661  1.041403
       Atomic Center   12 is at   4.280697 -0.382145  2.840647
       Atomic Center   13 is at   2.714387  2.318830  2.263790
    9934 points will be used for fitting atomic charges
 Fitting point charges to electrostatic potential
 Charges from ESP fit, RMS=   0.00391 RRMS=   0.15692:
 ESP charges:
               1
     1  C    0.208895
     2  C   -0.124891
     3  N    0.446438
     4  N   -0.320110
     5  N   -0.270777
     6  B    0.806454
     7  C   -0.328844
     8  H    0.130663
     9  H    0.146041
    10  H    0.146079
    11  F   -0.335717
    12  F   -0.328223
    13  F   -0.176008
 Sum of ESP charges =  -0.00000
 ESP charges with hydrogens summed into heavy atoms:
               1
     1  C    0.208895
     2  C   -0.124891
     3  N    0.446438
     4  N   -0.320110
     5  N   -0.270777
     6  B    0.806454
     7  C    0.093940
    11  F   -0.335717
    12  F   -0.328223
    13  F   -0.176008
 Charge=  -0.00000 Dipole=    -2.2121     5.0373     0.9714 Tot=     5.5867
 -----------------------------------------------------------------

              Electrostatic Properties (Atomic Units)

 -----------------------------------------------------------------
    Center     Electric         -------- Electric Field --------
               Potential          X             Y             Z
 -----------------------------------------------------------------
    1 Atom    -14.606559
    2 Atom    -14.737653
    3 Atom    -18.264779
    4 Atom    -18.330269
    5 Atom    -18.364068
    6 Atom    -11.337609
    7 Atom    -14.687970
    8 Atom     -1.052787
    9 Atom     -1.051964
   10 Atom     -1.051888
   11 Atom    -26.587304
   12 Atom    -26.580462
   13 Atom    -26.519376
 -----------------------------------------------------------------
 Unable to Open any file for archive entry.
 1\1\GINC-IRENE4759\SP\RwB97XD\GenECP\C3H3B1F3N3\PENASFRA\10-Apr-2024\0
 \\# wb97xd/genecp scrf=(solvent=toluene,pcm) nosymm pop=(chelpg) scfcy
 c=300\\f_fmetriazole_chelpg\\0,1\C,0,2.659136,1.653603,1.136614\C,0,3.
 154404,0.422603,0.770056\N,0,2.032685,2.161372,0.073752\N,0,2.122065,1
 .28009,-0.95102\N,0,2.782144,0.257254,-0.541119\B,0,3.95426,-0.609745,
 1.572143\C,0,1.340111,3.429523,-0.06358\H,0,0.966919,3.476696,-1.08391
 2\H,0,0.508071,3.477661,0.638384\H,0,2.030585,4.252759,0.117465\F,0,4.
 347476,-1.755661,1.041403\F,0,4.280697,-0.382145,2.840647\F,0,2.714387
 ,2.31883,2.26379\\Version=AS64L-G16RevC.02\HF=-604.8299427\RMSD=5.402e
 -09\Dipole=-0.865147,2.0099672,0.4404089\Quadrupole=-6.290302,11.25551
 6,-4.9652139,7.4618194,-0.1618746,0.2154831\PG=C01 [X(C3H3B1F3N3)]\\@
 The archive entry for this job was punched.


 I FIND THAT THE THREE TRULY GREAT TIMES FOR THINKING THOUGHTS
 ARE WHEN I AM STANDING IN THE SHOWER, SITTING ON THE JOHN, OR WALKING.

                                    -- COLIN FLETCHER
 Job cpu time:       0 days  0 hours 21 minutes  2.6 seconds.
 Elapsed time:       0 days  0 hours  0 minutes 12.9 seconds.
 File lengths (MBytes):  RWF=     69 Int=      0 D2E=      0 Chk=      5 Scr=      1
 Normal termination of Gaussian 16 at Wed Apr 10 13:51:16 2024.
