 Entering Gaussian System, Link 0=/ccc/products/gaussian-16-C.02/system/default/g16/g16
 Input=f_naphtoxanthene_chelpg.gjf
 Output=f_naphtoxanthene_chelpg.log
 Initial command:
 /ccc/products/gaussian-16-C.02/system/default/g16/l1.exe "/ccc/scratch/cont003/gen7343/penasfra/flp/b-n_flp/f_naphtoxanthene/reac/Gau-532126.inp" -scrdir="/ccc/scratch/cont003/gen7343/penasfra/flp/b-n_flp/f_naphtoxanthene/reac/"
 Entering Link 1 = /ccc/products/gaussian-16-C.02/system/default/g16/l1.exe PID=    532175.
  
 Copyright (c) 1988-2021, Gaussian, Inc.  All Rights Reserved.
  
 This is part of the Gaussian(R) 16 program.  It is based on
 the Gaussian(R) 09 system (copyright 2009, Gaussian, Inc.),
 the Gaussian(R) 03 system (copyright 2003, Gaussian, Inc.),
 the Gaussian(R) 98 system (copyright 1998, Gaussian, Inc.),
 the Gaussian(R) 94 system (copyright 1995, Gaussian, Inc.),
 the Gaussian 92(TM) system (copyright 1992, Gaussian, Inc.),
 the Gaussian 90(TM) system (copyright 1990, Gaussian, Inc.),
 the Gaussian 88(TM) system (copyright 1988, Gaussian, Inc.),
 the Gaussian 86(TM) system (copyright 1986, Carnegie Mellon
 University), and the Gaussian 82(TM) system (copyright 1983,
 Carnegie Mellon University). Gaussian is a federally registered
 trademark of Gaussian, Inc.
  
 This software contains proprietary and confidential information,
 including trade secrets, belonging to Gaussian, Inc.
  
 This software is provided under written license and may be
 used, copied, transmitted, or stored only in accord with that
 written license.
  
 The following legend is applicable only to US Government
 contracts under FAR:
  
                    RESTRICTED RIGHTS LEGEND
  
 Use, reproduction and disclosure by the US Government is
 subject to restrictions as set forth in subparagraphs (a)
 and (c) of the Commercial Computer Software - Restricted
 Rights clause in FAR 52.227-19.
  
 Gaussian, Inc.
 340 Quinnipiac St., Bldg. 40, Wallingford CT 06492
  
  
 ---------------------------------------------------------------
 Warning -- This program may not be used in any manner that
 competes with the business of Gaussian, Inc. or will provide
 assistance to any competitor of Gaussian, Inc.  The licensee
 of this program is prohibited from giving any competitor of
 Gaussian, Inc. access to this program.  By using this program,
 the user acknowledges that Gaussian, Inc. is engaged in the
 business of creating and licensing software in the field of
 computational chemistry and represents and warrants to the
 licensee that it is not a competitor of Gaussian, Inc. and that
 it will not use this program in any manner prohibited above.
 ---------------------------------------------------------------
  

 Cite this work as:
 Gaussian 16, Revision C.02,
 M. J. Frisch, G. W. Trucks, H. B. Schlegel, G. E. Scuseria, 
 M. A. Robb, J. R. Cheeseman, G. Scalmani, V. Barone, 
 G. A. Petersson, H. Nakatsuji, X. Li, M. Caricato, A. V. Marenich, 
 J. Bloino, B. G. Janesko, R. Gomperts, B. Mennucci, H. P. Hratchian, 
 J. V. Ortiz, A. F. Izmaylov, J. L. Sonnenberg, D. Williams-Young, 
 F. Ding, F. Lipparini, F. Egidi, J. Goings, B. Peng, A. Petrone, 
 T. Henderson, D. Ranasinghe, V. G. Zakrzewski, J. Gao, N. Rega, 
 G. Zheng, W. Liang, M. Hada, M. Ehara, K. Toyota, R. Fukuda, 
 J. Hasegawa, M. Ishida, T. Nakajima, Y. Honda, O. Kitao, H. Nakai, 
 T. Vreven, K. Throssell, J. A. Montgomery, Jr., J. E. Peralta, 
 F. Ogliaro, M. J. Bearpark, J. J. Heyd, E. N. Brothers, K. N. Kudin, 
 V. N. Staroverov, T. A. Keith, R. Kobayashi, J. Normand, 
 K. Raghavachari, A. P. Rendell, J. C. Burant, S. S. Iyengar, 
 J. Tomasi, M. Cossi, J. M. Millam, M. Klene, C. Adamo, R. Cammi, 
 J. W. Ochterski, R. L. Martin, K. Morokuma, O. Farkas, 
 J. B. Foresman, and D. J. Fox, Gaussian, Inc., Wallingford CT, 2019.
 
 ******************************************
 Gaussian 16:  AS64L-G16RevC.02  7-Dec-2021
                10-Apr-2024 
 ******************************************
 %nprocshared=128
 Will use up to  128 processors via shared memory.
 %mem=30GB
 %chk=f_naphtoxanthene_chelpg.chk
 ----------------------------------------------------------------------
 # wb97xd/genecp scrf=(solvent=toluene,pcm) nosymm pop=(chelpg) scfcyc=
 300
 ----------------------------------------------------------------------
 1/38=1,172=1/1;
 2/12=2,15=1,17=6,18=5,40=1/2;
 3/5=7,11=2,16=1,17=8,25=1,30=1,70=2201,72=13,74=-58/1,2,3;
 4//1;
 5/5=2,7=300,38=5,53=13/2;
 6/7=2,8=2,9=2,10=2,15=8,20=3,28=1/1,2;
 99/5=1,9=1/99;
 -----------------------
 f_naphtoxanthene_chelpg
 -----------------------
 Symbolic Z-matrix:
 Charge =  0 Multiplicity = 1
 C                    -2.12874   1.63748   1.20248 
 C                    -0.89382   1.81555   1.8852 
 C                    -0.09742   2.91166   1.69622 
 C                    -0.49261   3.92213   0.78867 
 C                    -1.71203   3.77614   0.09697 
 C                    -2.51463   2.63498   0.31417 
 H                    -0.58059   1.0449    2.58019 
 H                     0.83851   3.01403   2.23341 
 C                    -2.13639   4.76836  -0.8293 
 O                    -3.68659   2.48794  -0.35036 
 C                    -3.37513   4.57787  -1.50644 
 C                    -4.13454   3.43062  -1.24089 
 C                    -3.81513   5.52781  -2.45238 
 C                    -5.35081   3.19477  -1.87763 
 C                    -5.02934   5.2828   -3.11284 
 C                    -5.76759   4.15646  -2.82443 
 H                    -5.39271   5.99281  -3.84765 
 H                    -6.70753   4.00463  -3.33954 
 B                    -2.94711   0.36572   1.48268 
 N                    -6.0882    2.03146  -1.59977 
 C                    -6.585     1.91052  -0.23313 
 H                    -7.42984   2.59353  -0.04955 
 H                    -6.92229   0.88564  -0.06573 
 H                    -5.79395   2.12094   0.4819 
 C                    -7.08678   1.64367  -2.57654 
 H                    -7.40539   0.62247  -2.3569 
 H                    -7.98386   2.28518  -2.56337 
 H                    -6.65985   1.65623  -3.5809 
 C                    -2.99589   6.68013  -2.68591 
 H                    -3.33453   7.41487  -3.40875 
 C                    -1.82262   6.8601   -2.02514 
 H                    -1.21769   7.74047  -2.2148 
 C                    -1.35643   5.89694  -1.07302 
 C                    -0.1279    6.03291  -0.3622 
 C                     0.28668   5.08974   0.52986 
 H                     0.48407   6.91035  -0.54495 
 H                     1.22578   5.21297   1.05814 
 F                    -4.1252    0.07783   0.94112 
 F                    -2.47992  -0.5518    2.33773 
 
                          Input orientation:                          
 ---------------------------------------------------------------------
 Center     Atomic      Atomic             Coordinates (Angstroms)
 Number     Number       Type             X           Y           Z
 ---------------------------------------------------------------------
      1          6           0       -2.128739    1.637477    1.202478
      2          6           0       -0.893823    1.815554    1.885195
      3          6           0       -0.097421    2.911659    1.696217
      4          6           0       -0.492611    3.922131    0.788667
      5          6           0       -1.712029    3.776140    0.096965
      6          6           0       -2.514630    2.634984    0.314169
      7          1           0       -0.580594    1.044898    2.580187
      8          1           0        0.838514    3.014026    2.233415
      9          6           0       -2.136388    4.768359   -0.829295
     10          8           0       -3.686593    2.487937   -0.350356
     11          6           0       -3.375128    4.577868   -1.506442
     12          6           0       -4.134541    3.430623   -1.240894
     13          6           0       -3.815133    5.527810   -2.452375
     14          6           0       -5.350812    3.194774   -1.877633
     15          6           0       -5.029343    5.282798   -3.112842
     16          6           0       -5.767592    4.156455   -2.824429
     17          1           0       -5.392708    5.992806   -3.847653
     18          1           0       -6.707533    4.004626   -3.339541
     19          5           0       -2.947113    0.365723    1.482680
     20          7           0       -6.088201    2.031456   -1.599772
     21          6           0       -6.585002    1.910519   -0.233126
     22          1           0       -7.429840    2.593530   -0.049552
     23          1           0       -6.922289    0.885642   -0.065732
     24          1           0       -5.793952    2.120939    0.481896
     25          6           0       -7.086784    1.643674   -2.576542
     26          1           0       -7.405388    0.622469   -2.356899
     27          1           0       -7.983855    2.285181   -2.563374
     28          1           0       -6.659850    1.656232   -3.580903
     29          6           0       -2.995889    6.680126   -2.685908
     30          1           0       -3.334531    7.414871   -3.408750
     31          6           0       -1.822617    6.860095   -2.025141
     32          1           0       -1.217690    7.740474   -2.214800
     33          6           0       -1.356434    5.896942   -1.073016
     34          6           0       -0.127896    6.032907   -0.362201
     35          6           0        0.286680    5.089745    0.529856
     36          1           0        0.484073    6.910350   -0.544945
     37          1           0        1.225778    5.212970    1.058141
     38          9           0       -4.125204    0.077828    0.941123
     39          9           0       -2.479917   -0.551796    2.337731
 ---------------------------------------------------------------------
                    Distance matrix (angstroms):
                    1          2          3          4          5
     1  C    0.000000
     2  C    1.422263   0.000000
     3  C    2.448177   1.367997   0.000000
     4  C    2.840387   2.408529   1.414523   0.000000
     5  C    2.443294   2.776891   2.431439   1.409520   0.000000
     6  C    1.390333   2.401375   2.798125   2.443452   1.411943
     7  H    2.155455   1.083991   2.121239   3.390539   3.860857
     8  H    3.429622   2.135084   1.083990   2.164219   3.413284
     9  C    3.732370   4.198986   3.739376   2.456808   1.422159
    10  O    2.358280   3.639966   4.153331   3.681821   2.399680
    11  C    4.187796   5.028962   4.876130   3.742515   2.445318
    12  C    3.634375   4.783632   5.019391   4.198137   2.788873
    13  C    5.597907   6.413222   6.154384   4.911386   3.740392
    14  C    4.721654   5.993820   6.360085   5.589304   4.180642
    15  C    6.350107   7.355588   7.285136   6.136377   4.855662
    16  C    5.983517   7.170356   7.357758   6.398031   5.012661
    17  H    7.424703   8.399699   8.262447   7.056494   5.832754
    18  H    6.870130   8.117212   8.381349   7.461512   6.067688
    19  B    1.538053   2.545590   3.827288   4.376559   3.882858
    20  N    4.866741   6.258847   6.894037   6.371022   5.007367
    21  C    4.689754   6.073370   6.842028   6.496759   5.228324
    22  H    5.530216   6.860613   7.544089   7.112871   5.840667
    23  H    5.015150   6.404159   7.334032   7.161775   5.960559
    24  H    3.766532   5.106248   5.877949   5.607372   4.421533
    25  C    6.234039   7.634750   8.289478   7.745910   6.370482
    26  H    6.445342   7.862525   8.664555   8.280630   6.955676
    27  H    6.991677   8.383249   8.985123   8.368663   6.973963
    28  H    6.588782   7.946740   8.514081   7.890645   6.519329
    29  C    6.426492   6.998409   6.465716   5.093683   4.222063
    30  H    7.489702   8.083023   7.537804   6.155814   5.306874
    31  C    6.147111   6.449867   5.693413   4.279961   3.745176
    32  H    7.053678   7.212456   6.314152   4.911853   4.615688
    33  C    4.890539   5.061892   4.262122   2.848145   2.448082
    34  C    5.076554   4.839783   3.739011   2.431643   2.795230
    35  C    4.266711   3.735085   2.500398   1.427445   2.430595
    36  H    6.138686   5.810432   4.620657   3.414950   3.880488
    37  H    4.904872   4.088907   2.730207   2.166043   3.408673
    38  F    2.546897   3.788507   4.982349   5.291280   4.495946
    39  F    2.490992   2.885278   4.252452   5.134687   4.933732
                    6          7          8          9         10
     6  C    0.000000
     7  H    3.376937   0.000000
     8  H    3.882107   2.451853   0.000000
     9  C    2.449871   5.282918   4.616050   0.000000
    10  O    1.355254   4.507513   5.237293   2.798722   0.000000
    11  C    2.798192   6.082091   5.846957   1.424532   2.408601
    12  C    2.382304   5.737847   6.080761   2.439583   1.371996
    13  C    4.208743   7.475655   7.066270   2.455471   3.698085
    14  C    3.627849   6.873798   7.432438   3.729303   2.366816
    15  C    5.007904   8.376261   8.256000   3.721347   4.152777
    16  C    4.769427   8.111511   8.398069   4.188153   3.638069
    17  H    6.072814   9.431615   9.202209   4.605798   5.236986
    18  H    5.727648   9.019011   9.433025   5.270673   4.512389
    19  B    2.588823   2.695591   4.680607   5.038423   2.900111
    20  N    4.098515   6.984203   7.977352   4.868377   2.745385
    21  C    4.170409   6.687073   7.900009   5.320980   2.957690
    22  H    4.928823   7.498397   8.588040   5.775683   3.756798
    23  H    4.757308   6.873379   8.369358   6.209941   3.621890
    24  H    3.323602   5.721870   6.917733   4.701684   2.295276
    25  C    5.499409   8.323515   9.371441   6.109251   4.150901
    26  H    5.924891   8.433924   9.734087   6.876361   4.619050
    27  H    6.189914   9.099604  10.068495   6.585292   4.837873
    28  H    5.771689   8.676988   9.585164   6.141530   4.468604
    29  C    5.059174   8.082153   7.234824   2.800108   4.848332
    30  H    6.113893   9.166684   8.283463   3.884992   5.809682
    31  C    4.878813   7.521182   6.325280   2.429786   5.039353
    32  H    5.843267   8.260056   6.808370   3.405451   6.095964
    33  C    3.729084   6.122920   4.905251   1.393351   4.192039
    34  C    4.207120   5.808857   4.096927   2.418946   5.023074
    35  C    3.730913   4.617013   2.741394   2.796755   4.830225
    36  H    5.292358   6.730787   4.798568   3.396439   6.081945
    37  H    4.603277   4.790869   2.523212   3.881270   5.791464
    38  F    3.086433   4.023185   5.910142   5.393593   2.769282
    39  F    3.775126   2.493119   4.872161   6.200977   4.233421
                   11         12         13         14         15
    11  C    0.000000
    12  C    1.401212   0.000000
    13  C    1.410951   2.442929   0.000000
    14  C    2.440094   1.392974   2.851613   0.000000
    15  C    2.411198   2.781261   1.403764   2.447229   0.000000
    16  C    2.763795   2.387733   2.414774   1.412430   1.377259
    17  H    3.399110   3.865612   2.156795   3.422239   1.084478
    18  H    3.846269   3.369583   3.387201   2.152609   2.121659
    19  B    5.182684   4.268659   6.548684   5.007295   7.045008
    20  N    3.722054   2.429660   4.256555   1.405083   3.739223
    21  C    4.363413   3.054680   5.067745   2.424240   4.699479
    22  H    4.743502   3.602640   5.239243   2.832972   4.730570
    23  H    5.318884   3.953413   6.074554   3.329357   5.674778
    24  H    3.980037   2.727072   4.912478   2.629995   4.848105
    25  C    4.850876   3.700389   5.079924   2.430634   4.214725
    26  H    5.710644   4.453048   6.079590   3.326820   5.285424
    27  H    5.254891   4.228263   5.282538   2.868888   4.244616
    28  H    4.860941   3.873150   4.935089   2.642314   4.003700
    29  C    2.440174   3.734148   1.433015   4.283299   2.503944
    30  H    3.415993   4.605849   2.169477   4.921273   2.739650
    31  C    2.808540   4.209669   2.434673   5.089646   3.735512
    32  H    3.893377   5.294462   3.420385   6.153029   4.623348
    33  C    2.450090   3.718708   2.843253   4.889190   4.245977
    34  C    3.737772   4.857694   4.268450   6.134361   5.670350
    35  C    4.221062   5.043356   5.090233   6.416248   6.447218
    36  H    4.610681   5.824469   4.902334   7.044675   6.296092
    37  H    5.305542   6.098798   6.150905   7.479533   7.518545
    38  F    5.177214   4.000315   6.427618   4.377540   6.659115
    39  F    6.472443   5.603927   7.854268   6.328358   8.381575
                   16         17         18         19         20
    16  C    0.000000
    17  H    2.135348   0.000000
    18  H    1.082535   2.437171   0.000000
    19  B    6.393429   8.127573   7.115911   0.000000
    20  N    2.473499   4.607491   2.702548   4.705594   0.000000
    21  C    3.525229   5.581347   3.748348   4.308668   1.459164
    22  H    3.592457   5.489131   3.651978   5.235045   2.125819
    23  H    4.431924   6.536487   4.526810   4.297664   2.088509
    24  H    3.882757   5.822143   4.357326   3.490966   2.104265
    25  C    2.848821   4.837413   2.509999   5.936945   1.449697
    26  H    3.923011   5.925685   3.590484   5.889355   2.072068
    27  H    2.912325   4.702116   2.277702   6.739706   2.141590
    28  H    2.760343   4.525779   2.361246   6.410125   2.095819
    29  C    3.751059   2.750782   4.621887   7.566452   5.687901
    30  H    4.108344   2.539881   4.797052   8.588752   6.311597
    31  C    4.848851   4.101133   5.808938   7.466336   6.456927
    32  H    5.823955   4.811583   6.734982   8.429070   7.529477
    33  C    5.055201   4.898909   6.111649   6.297319   6.132624
    34  C    6.433491   6.314129   7.501340   6.593068   7.284808
    35  C    6.984015   7.227278   8.066519   5.803592   7.384278
    36  H    7.201618   6.803405   8.244525   7.662666   8.252942
    37  H    8.068321   8.275223   9.150799   6.410075   8.407189
    38  F    5.788957   7.715303   6.357063   1.328181   3.758479
    39  F    7.721679   9.464415   8.418143   1.338367   5.932692
                   21         22         23         24         25
    21  C    0.000000
    22  H    1.101796   0.000000
    23  H    1.091859   1.781783   0.000000
    24  H    1.086873   1.783791   1.760398   0.000000
    25  C    2.411346   2.721322   2.627896   3.354585   0.000000
    26  H    2.615821   3.034721   2.356288   3.591782   1.092067
    27  H    2.743577   2.592549   3.053498   3.754507   1.102924
    28  H    3.358255   3.733879   3.608200   4.179960   1.091408
    29  C    6.453450   6.581076   7.473820   6.216939   6.489471
    30  H    7.137790   7.162478   8.165697   7.015098   6.933880
    31  C    7.098587   7.317614   8.095680   6.672056   7.431456
    32  H    8.168442   8.352852   9.173313   7.732627   8.470425
    33  C    6.628341   6.989011   7.556884   6.030549   7.292996
    34  C    7.661916   8.077466   8.529127   6.936871   8.520258
    35  C    7.609838   8.130897   8.366507   6.766845   8.711664
    36  H    8.664142   9.028309   9.559338   7.962817   9.443682
    37  H    8.577986   9.110882   9.294076   7.692160   9.749332
    38  F    3.284543   4.269756   3.080585   2.677669   4.857653
    39  F    5.433601   6.331977   5.251431   4.644401   7.084729
                   26         27         28         29         30
    26  H    0.000000
    27  H    1.772531   0.000000
    28  H    1.767110   1.784357   0.000000
    29  C    7.499809   6.649087   6.282128   0.000000
    30  H    7.988429   6.974568   6.652015   1.084910   0.000000
    31  C    8.377671   7.692879   7.273198   1.358517   2.123213
    32  H    9.432592   8.698432   8.276554   2.123269   2.452050
    33  C    8.127624   7.693419   7.238739   2.429529   3.416523
    34  C    9.285125   8.978124   8.495984   3.747518   4.633982
    35  C    9.351889   9.264740   8.771638   4.862685   5.833695
    36  H   10.250084   9.857588   9.373283   4.092293   4.799756
    37  H   10.355299  10.320109   9.816020   5.830345   6.752622
    38  F    4.683288   5.660662   5.418903   7.617155   8.566140
    39  F    6.904977   7.897000   7.574791   8.820650   9.860030
                   31         32         33         34         35
    31  C    0.000000
    32  H    1.084885   0.000000
    33  C    1.432317   2.172908   0.000000
    34  C    2.514297   2.745097   1.425851   0.000000
    35  C    3.756499   4.101540   2.433226   1.362789   0.000000
    36  H    2.741227   2.524583   2.166407   1.085268   2.123385
    37  H    4.638142   4.803223   3.417231   2.126523   1.084516
    38  F    7.752404   8.782348   6.751661   7.289725   6.689781
    39  F    8.625707   9.543610   7.381167   7.495328   6.538307
                   36         37         38         39
    36  H    0.000000
    37  H    2.449716   0.000000
    38  F    8.374795   7.417303   0.000000
    39  F    8.531042   6.971517   2.248090   0.000000
 Symmetry turned off by external request.
 Stoichiometry    C20H14BF2NO
 Framework group  C1[X(C20H14BF2NO)]
 Deg. of freedom   111
 Full point group                 C1      NOp   1
 Rotational constants (GHZ):           0.2664815           0.2534820           0.1318063
 General basis read from cards:  (5D, 7F)
 ======================================================================================================
                                       Pseudopotential Parameters
 ======================================================================================================
  Center     Atomic      Valence      Angular      Power
  Number     Number     Electrons     Momentum     of R      Exponent        Coefficient   SO-Coeffient
 ======================================================================================================
    1          6
                                   No pseudopotential on this center.
    2          6
                                   No pseudopotential on this center.
    3          6
                                   No pseudopotential on this center.
    4          6
                                   No pseudopotential on this center.
    5          6
                                   No pseudopotential on this center.
    6          6
                                   No pseudopotential on this center.
    7          1
                                   No pseudopotential on this center.
    8          1
                                   No pseudopotential on this center.
    9          6
                                   No pseudopotential on this center.
   10          8
                                   No pseudopotential on this center.
   11          6
                                   No pseudopotential on this center.
   12          6
                                   No pseudopotential on this center.
   13          6
                                   No pseudopotential on this center.
   14          6
                                   No pseudopotential on this center.
   15          6
                                   No pseudopotential on this center.
   16          6
                                   No pseudopotential on this center.
   17          1
                                   No pseudopotential on this center.
   18          1
                                   No pseudopotential on this center.
   19          5
                                   No pseudopotential on this center.
   20          7
                                   No pseudopotential on this center.
   21          6
                                   No pseudopotential on this center.
   22          1
                                   No pseudopotential on this center.
   23          1
                                   No pseudopotential on this center.
   24          1
                                   No pseudopotential on this center.
   25          6
                                   No pseudopotential on this center.
   26          1
                                   No pseudopotential on this center.
   27          1
                                   No pseudopotential on this center.
   28          1
                                   No pseudopotential on this center.
   29          6
                                   No pseudopotential on this center.
   30          1
                                   No pseudopotential on this center.
   31          6
                                   No pseudopotential on this center.
   32          1
                                   No pseudopotential on this center.
   33          6
                                   No pseudopotential on this center.
   34          6
                                   No pseudopotential on this center.
   35          6
                                   No pseudopotential on this center.
   36          1
                                   No pseudopotential on this center.
   37          1
                                   No pseudopotential on this center.
   38          9
                                   No pseudopotential on this center.
   39          9
                                   No pseudopotential on this center.
 ======================================================================================================
   648 basis functions,  1026 primitive gaussians,   673 cartesian basis functions
    86 alpha electrons       86 beta electrons
       nuclear repulsion energy      2109.0256265055 Hartrees.
 NAtoms=   39 NActive=   39 NUniq=   39 SFac= 1.00D+00 NAtFMM=   60 NAOKFM=F Big=F
 Integral buffers will be    131072 words long.
 Raffenetti 2 integral format.
 Two-electron integral symmetry is turned off.
 Nuclear repulsion after empirical dispersion term =     2108.9939905565 Hartrees.
 ------------------------------------------------------------------------------
 Polarizable Continuum Model (PCM)
 =================================
 Model                : PCM.
 Atomic radii         : UFF (Universal Force Field).
 Polarization charges : Total charges.
 Charge compensation  : None.
 Solution method      : On-the-fly selection.
 Cavity type          : Scaled VdW (van der Waals Surface) (Alpha=1.100).
 Cavity algorithm     : GePol (No added spheres)
                        Default sphere list used, NSphG=   39.
                        Lebedev-Laikov grids with approx.  5.0 points / Ang**2.
                        Smoothing algorithm: York/Karplus (Gamma=1.0000).
                        Polarization charges: spherical gaussians, with
                                              point-specific exponents (IZeta= 3).
                        Self-potential: point-specific (ISelfS= 7).
                        Self-field    : sphere-specific E.n sum rule (ISelfD= 2).
 Solvent              : Toluene, Eps=   2.374100 Eps(inf)=   2.238315
 ------------------------------------------------------------------------------
 One-electron integrals computed using PRISM.
   1 Symmetry operations used in ECPInt.
 ECPInt:  NShTT=   24310 NPrTT=   90168 LenC2=   21379 LenP2D=   52462.
 LDataN:  DoStor=T MaxTD1= 4 Len=   56
 Number of processors reduced to  75 by ecpmxn.
 NBasis=   648 RedAO= T EigKep=  1.11D-06  NBF=   648
 NBsUse=   635 1.00D-06 EigRej=  8.88D-07 NBFU=   635
 ExpMin= 3.15D-02 ExpMax= 1.14D+04 ExpMxC= 1.72D+03 IAcc=3 IRadAn=         5 AccDes= 0.00D+00
 Harris functional with IExCor= 4639 and IRadAn=       5 diagonalized for initial guess.
 HarFok:  IExCor= 4639 AccDes= 0.00D+00 IRadAn=         5 IDoV= 1 UseB2=F ITyADJ=14
 ICtDFT=  3500011 ScaDFX=  1.000000  1.000000  1.000000  1.000000
 FoFCou: FMM=F IPFlag=           0 FMFlag=      100000 FMFlg1=           0
         NFxFlg=           0 DoJE=T BraDBF=F KetDBF=T FulRan=T
         wScrn=  0.000000 ICntrl=       500 IOpCl=  0 I1Cent=   200000004 NGrid=           0
         NMat0=    1 NMatS0=      1 NMatT0=    0 NMatD0=    1 NMtDS0=    0 NMtDT0=    0
 Symmetry not used in FoFCou.
 Requested convergence on RMS density matrix=1.00D-08 within 300 cycles.
 Requested convergence on MAX density matrix=1.00D-06.
 Requested convergence on             energy=1.00D-06.
 No special actions if energy rises.
 Inv3:  Mode=1 IEnd=    23941875.
 Iteration    1 A*A^-1 deviation from unit magnitude is 4.22D-15 for   2822.
 Iteration    1 A*A^-1 deviation from orthogonality  is 3.55D-15 for   2822   1128.
 Iteration    1 A^-1*A deviation from unit magnitude is 4.22D-15 for   2820.
 Iteration    1 A^-1*A deviation from orthogonality  is 5.99D-13 for   2811   2681.
 Error on total polarization charges =  0.01141
 SCF Done:  E(RwB97XD) =  -1125.15607063     A.U. after   17 cycles
            NFock= 17  Conv=0.46D-08     -V/T= 2.0038

 **********************************************************************

            Population analysis using the SCF Density.

 **********************************************************************

 Alpha  occ. eigenvalues --  -24.81624 -24.81598 -19.31963 -14.44406 -10.38360
 Alpha  occ. eigenvalues --  -10.36425 -10.33399 -10.31923 -10.31720 -10.31670
 Alpha  occ. eigenvalues --  -10.31410 -10.30953 -10.30820 -10.30651 -10.30621
 Alpha  occ. eigenvalues --  -10.30570 -10.30149 -10.29995 -10.29993 -10.29918
 Alpha  occ. eigenvalues --  -10.29796 -10.29506 -10.29403 -10.28940  -6.95533
 Alpha  occ. eigenvalues --   -1.33888  -1.30757  -1.22304  -1.05060  -1.01091
 Alpha  occ. eigenvalues --   -0.98669  -0.94538  -0.92280  -0.90236  -0.88118
 Alpha  occ. eigenvalues --   -0.86613  -0.84006  -0.81898  -0.80983  -0.76711
 Alpha  occ. eigenvalues --   -0.76316  -0.74596  -0.73958  -0.70269  -0.67500
 Alpha  occ. eigenvalues --   -0.67035  -0.66791  -0.64822  -0.62782  -0.62075
 Alpha  occ. eigenvalues --   -0.61295  -0.59902  -0.58513  -0.58191  -0.57932
 Alpha  occ. eigenvalues --   -0.57061  -0.56318  -0.55403  -0.55078  -0.53938
 Alpha  occ. eigenvalues --   -0.53406  -0.52816  -0.52336  -0.51774  -0.51132
 Alpha  occ. eigenvalues --   -0.50169  -0.50032  -0.48893  -0.48734  -0.48524
 Alpha  occ. eigenvalues --   -0.47756  -0.47299  -0.46296  -0.46229  -0.45445
 Alpha  occ. eigenvalues --   -0.44857  -0.43168  -0.42476  -0.41034  -0.40842
 Alpha  occ. eigenvalues --   -0.38381  -0.35617  -0.35103  -0.32352  -0.29065
 Alpha  occ. eigenvalues --   -0.26083
 Alpha virt. eigenvalues --   -0.00819   0.00614   0.03107   0.03809   0.04104
 Alpha virt. eigenvalues --    0.04439   0.04754   0.05649   0.05795   0.06360
 Alpha virt. eigenvalues --    0.07081   0.07233   0.07608   0.08232   0.08823
 Alpha virt. eigenvalues --    0.09190   0.09372   0.09526   0.09571   0.10681
 Alpha virt. eigenvalues --    0.10867   0.11106   0.11295   0.11675   0.11724
 Alpha virt. eigenvalues --    0.12432   0.12989   0.13776   0.14044   0.14450
 Alpha virt. eigenvalues --    0.14922   0.15014   0.15413   0.15556   0.16031
 Alpha virt. eigenvalues --    0.16153   0.16353   0.16909   0.17097   0.17447
 Alpha virt. eigenvalues --    0.17739   0.17989   0.18314   0.18402   0.18597
 Alpha virt. eigenvalues --    0.18678   0.18983   0.19372   0.19752   0.20084
 Alpha virt. eigenvalues --    0.20249   0.20414   0.20567   0.20918   0.21303
 Alpha virt. eigenvalues --    0.21708   0.22067   0.22524   0.22697   0.22908
 Alpha virt. eigenvalues --    0.23012   0.23414   0.23705   0.24143   0.24426
 Alpha virt. eigenvalues --    0.24920   0.25084   0.25442   0.25538   0.25694
 Alpha virt. eigenvalues --    0.26077   0.26332   0.26809   0.27155   0.27386
 Alpha virt. eigenvalues --    0.27751   0.27938   0.28119   0.28873   0.29228
 Alpha virt. eigenvalues --    0.29804   0.29871   0.30675   0.30818   0.30978
 Alpha virt. eigenvalues --    0.31137   0.31818   0.32003   0.32304   0.32495
 Alpha virt. eigenvalues --    0.32526   0.32973   0.33222   0.33325   0.34246
 Alpha virt. eigenvalues --    0.34321   0.34597   0.34968   0.35373   0.35557
 Alpha virt. eigenvalues --    0.35757   0.36044   0.36178   0.36521   0.36751
 Alpha virt. eigenvalues --    0.37004   0.37460   0.37865   0.38108   0.38528
 Alpha virt. eigenvalues --    0.38641   0.38749   0.39028   0.39239   0.39882
 Alpha virt. eigenvalues --    0.40115   0.40488   0.40742   0.40856   0.41134
 Alpha virt. eigenvalues --    0.41463   0.41855   0.42907   0.43300   0.43782
 Alpha virt. eigenvalues --    0.44185   0.44631   0.45004   0.45590   0.46014
 Alpha virt. eigenvalues --    0.46080   0.46466   0.47007   0.47987   0.48386
 Alpha virt. eigenvalues --    0.49574   0.50170   0.50475   0.51241   0.51732
 Alpha virt. eigenvalues --    0.53147   0.53498   0.54435   0.55059   0.56221
 Alpha virt. eigenvalues --    0.57752   0.58498   0.58913   0.59289   0.60270
 Alpha virt. eigenvalues --    0.60703   0.61171   0.61463   0.61741   0.62349
 Alpha virt. eigenvalues --    0.62830   0.63461   0.63645   0.64169   0.64351
 Alpha virt. eigenvalues --    0.66088   0.66569   0.66972   0.67002   0.67739
 Alpha virt. eigenvalues --    0.68119   0.68774   0.69098   0.69307   0.69671
 Alpha virt. eigenvalues --    0.70086   0.70467   0.70815   0.71208   0.71464
 Alpha virt. eigenvalues --    0.71611   0.71854   0.72475   0.73190   0.73663
 Alpha virt. eigenvalues --    0.73956   0.74621   0.74702   0.75247   0.75739
 Alpha virt. eigenvalues --    0.75874   0.76456   0.76978   0.78155   0.78858
 Alpha virt. eigenvalues --    0.79427   0.80581   0.81059   0.81708   0.81987
 Alpha virt. eigenvalues --    0.82889   0.83374   0.84153   0.84415   0.85202
 Alpha virt. eigenvalues --    0.85983   0.86348   0.86961   0.87324   0.87836
 Alpha virt. eigenvalues --    0.88289   0.89019   0.89717   0.91311   0.91509
 Alpha virt. eigenvalues --    0.91844   0.92669   0.93980   0.94639   0.96173
 Alpha virt. eigenvalues --    0.96902   0.97602   0.97857   0.98360   0.98744
 Alpha virt. eigenvalues --    0.99004   0.99621   1.00418   1.00728   1.01795
 Alpha virt. eigenvalues --    1.02124   1.02617   1.02829   1.03482   1.03750
 Alpha virt. eigenvalues --    1.04348   1.04692   1.05126   1.05658   1.06036
 Alpha virt. eigenvalues --    1.06861   1.07058   1.07925   1.09267   1.09823
 Alpha virt. eigenvalues --    1.10743   1.11063   1.11446   1.12340   1.12744
 Alpha virt. eigenvalues --    1.13954   1.15250   1.16422   1.17147   1.17630
 Alpha virt. eigenvalues --    1.18600   1.19439   1.20079   1.20591   1.21585
 Alpha virt. eigenvalues --    1.21989   1.22427   1.23115   1.23636   1.24713
 Alpha virt. eigenvalues --    1.25569   1.26724   1.27714   1.31973   1.33119
 Alpha virt. eigenvalues --    1.34394   1.35286   1.36283   1.38560   1.39972
 Alpha virt. eigenvalues --    1.41616   1.42064   1.42329   1.43179   1.44648
 Alpha virt. eigenvalues --    1.45693   1.46730   1.48240   1.48940   1.49923
 Alpha virt. eigenvalues --    1.50931   1.52389   1.53120   1.53797   1.54124
 Alpha virt. eigenvalues --    1.55309   1.55760   1.56071   1.56682   1.56846
 Alpha virt. eigenvalues --    1.57252   1.57741   1.58599   1.58968   1.59782
 Alpha virt. eigenvalues --    1.60842   1.60898   1.62760   1.63266   1.64290
 Alpha virt. eigenvalues --    1.65313   1.66257   1.66602   1.67455   1.68003
 Alpha virt. eigenvalues --    1.68597   1.69312   1.70201   1.71405   1.71944
 Alpha virt. eigenvalues --    1.72664   1.73452   1.74728   1.75558   1.76161
 Alpha virt. eigenvalues --    1.77099   1.78154   1.79486   1.80002   1.80464
 Alpha virt. eigenvalues --    1.80531   1.81310   1.82328   1.82910   1.83877
 Alpha virt. eigenvalues --    1.85400   1.86674   1.87010   1.88322   1.88479
 Alpha virt. eigenvalues --    1.89335   1.91502   1.92657   1.93474   1.93986
 Alpha virt. eigenvalues --    1.94708   1.95077   1.95515   1.97185   1.98166
 Alpha virt. eigenvalues --    1.99019   1.99544   2.00371   2.01041   2.01515
 Alpha virt. eigenvalues --    2.01779   2.02255   2.03601   2.05615   2.06006
 Alpha virt. eigenvalues --    2.07194   2.07415   2.08760   2.09356   2.09866
 Alpha virt. eigenvalues --    2.10111   2.12510   2.13765   2.13798   2.14130
 Alpha virt. eigenvalues --    2.15526   2.15866   2.16935   2.17765   2.18972
 Alpha virt. eigenvalues --    2.21089   2.21879   2.22269   2.23426   2.24297
 Alpha virt. eigenvalues --    2.25404   2.26174   2.26773   2.29246   2.30541
 Alpha virt. eigenvalues --    2.30773   2.31694   2.34065   2.37338   2.38278
 Alpha virt. eigenvalues --    2.38712   2.40693   2.42270   2.43169   2.46384
 Alpha virt. eigenvalues --    2.47454   2.48855   2.50466   2.52766   2.53781
 Alpha virt. eigenvalues --    2.53976   2.56443   2.58048   2.59452   2.60259
 Alpha virt. eigenvalues --    2.61843   2.62829   2.64143   2.66171   2.66680
 Alpha virt. eigenvalues --    2.66870   2.67349   2.68419   2.70201   2.71520
 Alpha virt. eigenvalues --    2.72427   2.74061   2.74380   2.75076   2.76835
 Alpha virt. eigenvalues --    2.77284   2.78566   2.79896   2.80746   2.82523
 Alpha virt. eigenvalues --    2.82716   2.83303   2.84001   2.84518   2.85087
 Alpha virt. eigenvalues --    2.85969   2.86755   2.87101   2.87774   2.88131
 Alpha virt. eigenvalues --    2.88443   2.89764   2.89928   2.90477   2.92801
 Alpha virt. eigenvalues --    2.93851   2.94194   2.94817   2.95534   2.96461
 Alpha virt. eigenvalues --    2.97856   2.98507   3.00653   3.00973   3.01574
 Alpha virt. eigenvalues --    3.02537   3.03848   3.05910   3.07856   3.10694
 Alpha virt. eigenvalues --    3.14802   3.16926   3.19122   3.20606   3.21079
 Alpha virt. eigenvalues --    3.22247   3.26021   3.26704   3.30183   3.31820
 Alpha virt. eigenvalues --    3.33392   3.34162   3.36081   3.37120   3.37788
 Alpha virt. eigenvalues --    3.39939   3.43521   3.47399   3.51176   3.51389
 Alpha virt. eigenvalues --    3.52525   3.53673   3.55992   3.57277   3.59536
 Alpha virt. eigenvalues --    3.63517   3.64594   3.65070   3.66092   3.68284
 Alpha virt. eigenvalues --    3.72471   3.73485   3.79178   3.79760   3.84269
 Alpha virt. eigenvalues --    3.85211   3.87079   3.87412   3.89052   3.90437
 Alpha virt. eigenvalues --    3.90506   3.92261   3.92510   3.94734   3.98549
 Alpha virt. eigenvalues --    4.01237   4.06116   4.07416   4.10053   4.11919
 Alpha virt. eigenvalues --    4.14044   4.18507   4.18642   4.19912   4.21243
 Alpha virt. eigenvalues --    4.31735   4.37011   4.39764   4.42162   4.44697
 Alpha virt. eigenvalues --    4.47948   4.65392   4.71042   4.73594   4.93333
 Alpha virt. eigenvalues --    4.94528   4.95139   4.97635   4.99654   5.15163
 Alpha virt. eigenvalues --    5.15381   5.57025   6.16369   6.41294   6.43266
 Alpha virt. eigenvalues --    6.48148   6.56866   6.57989   6.83107  14.80442
 Alpha virt. eigenvalues --   23.60215  23.83084  23.92977  23.99845  24.03601
 Alpha virt. eigenvalues --   24.07012  24.08265  24.08492  24.10988  24.11232
 Alpha virt. eigenvalues --   24.12509  24.16060  24.17706  24.19574  24.20479
 Alpha virt. eigenvalues --   24.21556  24.31420  24.31990  24.32586  24.34010
 Alpha virt. eigenvalues --   35.75380  50.17342  66.95522  66.97381
          Condensed to atoms (all electrons):
               1          2          3          4          5          6
     1  C   14.415980  -1.913789  -4.861794  -0.319315   0.373020  -1.126346
     2  C   -1.913789  15.621932   1.342614  -3.022221  -0.556127  -2.863571
     3  C   -4.861794   1.342614  11.190516   0.756837  -1.412674   0.313347
     4  C   -0.319315  -3.022221   0.756837  10.382558   0.576076   0.761180
     5  C    0.373020  -0.556127  -1.412674   0.576076   8.359524   0.689341
     6  C   -1.126346  -2.863571   0.313347   0.761180   0.689341  13.173615
     7  H   -0.164023   0.360779   0.066360   0.027440   0.006072   0.014715
     8  H    0.064089   0.086936   0.294808  -0.085488   0.033838  -0.007446
     9  C   -0.044005  -0.954747  -0.666453   0.438426   0.495288  -0.099006
    10  O   -0.215532   0.048939  -0.002952   0.008230  -0.233601  -0.045530
    11  C    0.017877   0.168299   0.167923   0.121140  -0.372864  -0.143973
    12  C    1.037421   0.771716   0.578058  -0.546264  -1.925286  -3.151912
    13  C    0.283279  -0.088466  -0.003356  -0.845812  -0.143956  -0.779154
    14  C   -0.082784  -0.057411  -0.038913  -0.049781  -0.113783   0.401255
    15  C   -0.169592  -0.042060  -0.013696  -0.009686   0.360308   0.447498
    16  C   -0.170696  -0.005266  -0.017210  -0.060571   0.276225   0.517936
    17  H    0.000630  -0.000113   0.000088   0.000347   0.003263   0.003662
    18  H    0.000087   0.000536   0.000029  -0.000215  -0.000208  -0.006197
    19  B    0.258298   0.137148   0.138491  -0.001226  -0.000738  -0.079107
    20  N   -0.016896  -0.012464  -0.007427   0.017771  -0.037465  -0.149986
    21  C    0.021693   0.001965   0.004552  -0.009515  -0.019893  -0.076918
    22  H   -0.006089  -0.004311  -0.000529   0.000800  -0.000484   0.019665
    23  H    0.010295   0.010053   0.001075  -0.000154  -0.001020  -0.027853
    24  H   -0.002040  -0.006350  -0.007846   0.000693   0.022720   0.007485
    25  C    0.036843   0.007665   0.002111  -0.000266  -0.036064  -0.091143
    26  H    0.002954   0.000322   0.000395  -0.000352  -0.001978  -0.004803
    27  H    0.000884   0.000222   0.000021  -0.000116  -0.000021  -0.002735
    28  H   -0.001706  -0.000383  -0.000162   0.000155   0.001168   0.003644
    29  C   -0.114769  -0.014745  -0.000635   0.060333  -0.621682   0.091482
    30  H   -0.000847  -0.000196  -0.000086   0.000474   0.000367  -0.001894
    31  C   -0.051015  -0.182716   0.021892  -0.296894  -1.229634   0.322022
    32  H    0.000648  -0.002987  -0.001958   0.011270  -0.012126   0.008423
    33  C   -0.510288  -0.498286  -0.159115   0.333583   0.739900   0.533721
    34  C    0.150648  -0.393915  -0.961027  -1.783049   0.840412  -1.526316
    35  C   -0.315802  -1.667350  -0.635107  -0.641176  -0.177930  -1.077066
    36  H    0.005144   0.012959  -0.009924  -0.062896   0.015098  -0.028201
    37  H   -0.009351  -0.040274   0.035774  -0.058974   0.001334  -0.002275
    38  F   -0.090566   0.183030   0.029207   0.020450  -0.002038  -0.115181
    39  F    0.178409  -0.320032   0.002745   0.030294   0.028451   0.128453
               7          8          9         10         11         12
     1  C   -0.164023   0.064089  -0.044005  -0.215532   0.017877   1.037421
     2  C    0.360779   0.086936  -0.954747   0.048939   0.168299   0.771716
     3  C    0.066360   0.294808  -0.666453  -0.002952   0.167923   0.578058
     4  C    0.027440  -0.085488   0.438426   0.008230   0.121140  -0.546264
     5  C    0.006072   0.033838   0.495288  -0.233601  -0.372864  -1.925286
     6  C    0.014715  -0.007446  -0.099006  -0.045530  -0.143973  -3.151912
     7  H    0.461600  -0.006864   0.001532  -0.001786  -0.001424  -0.011521
     8  H   -0.006864   0.461444  -0.008020  -0.000789   0.000739  -0.004199
     9  C    0.001532  -0.008020   6.869628  -0.018754   0.214760  -0.569501
    10  O   -0.001786  -0.000789  -0.018754   8.546338  -0.197266   0.243538
    11  C   -0.001424   0.000739   0.214760  -0.197266   6.612423   0.087650
    12  C   -0.011521  -0.004199  -0.569501   0.243538   0.087650  11.444652
    13  C   -0.001321  -0.000226   0.214276   0.027828   0.421435   0.472797
    14  C    0.001098   0.000370   0.116551  -0.239706   0.081257  -0.612091
    15  C   -0.000008   0.000632  -0.887965  -0.010821  -0.262518   0.657044
    16  C    0.000467   0.000581  -0.852733   0.062081  -0.297153  -0.811347
    17  H   -0.000010   0.000010  -0.013134   0.000345   0.011848   0.032322
    18  H    0.000011   0.000006  -0.003079  -0.004235   0.018274  -0.005053
    19  B   -0.033382  -0.000329   0.007394  -0.014165  -0.003891  -0.000251
    20  N    0.000303  -0.000067   0.007534  -0.017393   0.105077   0.033209
    21  C   -0.001266  -0.000046  -0.010173   0.002485  -0.014216  -0.041401
    22  H   -0.000076  -0.000002   0.003543  -0.001542  -0.009950   0.038213
    23  H   -0.000043  -0.000014   0.000104   0.001690   0.001934  -0.001002
    24  H    0.001036   0.000251  -0.004517  -0.002582   0.018340  -0.052014
    25  C   -0.000080  -0.000019  -0.009159  -0.017100  -0.028140   0.174906
    26  H   -0.000015   0.000005  -0.002655  -0.001355   0.000377   0.000304
    27  H   -0.000001  -0.000002   0.001026   0.001007   0.001515   0.005207
    28  H   -0.000007  -0.000002   0.002176   0.000592  -0.010229   0.010418
    29  C    0.000498  -0.000568   0.669201   0.013541   0.164868  -0.888107
    30  H   -0.000003   0.000029  -0.001309  -0.000043   0.013992  -0.021017
    31  C    0.000772  -0.004495   0.263537   0.005314   0.583615  -0.726262
    32  H    0.000031  -0.000104   0.022972   0.000489   0.001524  -0.006564
    33  C    0.006318   0.001525   0.533294  -0.024878   0.351352   0.267863
    34  C    0.000840   0.008597  -0.023889   0.007418  -1.318233  -0.110796
    35  C    0.013308  -0.019355   0.394547   0.030649  -0.625974   0.062113
    36  H   -0.000382   0.001438   0.012956   0.000040  -0.018576   0.000681
    37  H    0.002136  -0.002899  -0.002080   0.000611   0.005372  -0.001999
    38  F   -0.000370  -0.000133   0.007041   0.006028   0.002141  -0.065635
    39  F    0.009044  -0.000582   0.003164  -0.006651  -0.001282  -0.011280
              13         14         15         16         17         18
     1  C    0.283279  -0.082784  -0.169592  -0.170696   0.000630   0.000087
     2  C   -0.088466  -0.057411  -0.042060  -0.005266  -0.000113   0.000536
     3  C   -0.003356  -0.038913  -0.013696  -0.017210   0.000088   0.000029
     4  C   -0.845812  -0.049781  -0.009686  -0.060571   0.000347  -0.000215
     5  C   -0.143956  -0.113783   0.360308   0.276225   0.003263  -0.000208
     6  C   -0.779154   0.401255   0.447498   0.517936   0.003662  -0.006197
     7  H   -0.001321   0.001098  -0.000008   0.000467  -0.000010   0.000011
     8  H   -0.000226   0.000370   0.000632   0.000581   0.000010   0.000006
     9  C    0.214276   0.116551  -0.887965  -0.852733  -0.013134  -0.003079
    10  O    0.027828  -0.239706  -0.010821   0.062081   0.000345  -0.004235
    11  C    0.421435   0.081257  -0.262518  -0.297153   0.011848   0.018274
    12  C    0.472797  -0.612091   0.657044  -0.811347   0.032322  -0.005053
    13  C   12.031532   1.359689  -0.938154  -2.928749  -0.056714  -0.011378
    14  C    1.359689  13.731967  -4.530620  -1.709182   0.001287  -0.219308
    15  C   -0.938154  -4.530620  11.052772   2.514533   0.378761   0.087910
    16  C   -2.928749  -1.709182   2.514533  11.757736  -0.005166   0.455793
    17  H   -0.056714   0.001287   0.378761  -0.005166   0.457238  -0.008816
    18  H   -0.011378  -0.219308   0.087910   0.455793  -0.008816   0.487551
    19  B    0.008767   0.006091  -0.006085  -0.010733  -0.000025  -0.000442
    20  N    0.108656  -0.387767  -0.020871  -0.512574  -0.004802  -0.019228
    21  C    0.023934  -0.124001  -0.032733  -0.054086  -0.000409  -0.006275
    22  H   -0.005495   0.053549  -0.011504  -0.040493  -0.000285  -0.002521
    23  H    0.004044  -0.017676   0.006369   0.013558  -0.000119  -0.000248
    24  H    0.008074  -0.049258   0.010753   0.012228   0.000092   0.002753
    25  C    0.000750   0.218607  -0.302184  -0.419812   0.002800  -0.010722
    26  H   -0.004494   0.031408  -0.008185   0.026564   0.000125   0.006174
    27  H    0.000724   0.007521   0.005086  -0.008895   0.001061  -0.011754
    28  H    0.006123   0.003920  -0.014349  -0.024326  -0.000015  -0.007275
    29  C   -1.150796  -0.532367  -1.256769  -1.329826  -0.013323   0.027215
    30  H   -0.069181   0.004261   0.034373   0.001888   0.000628   0.001324
    31  C   -1.496853   0.410189  -1.214910  -0.211444  -0.009357   0.007078
    32  H   -0.045156   0.005365  -0.016525   0.005203   0.000488  -0.000212
    33  C   -0.018785  -0.781074   0.263101  -0.260824   0.013532   0.007323
    34  C   -0.505400  -0.244011   0.046557  -0.107269  -0.001720   0.001215
    35  C   -0.104091  -0.052060  -0.050690  -0.057498  -0.000705  -0.000577
    36  H    0.006378  -0.003060  -0.000649  -0.001993   0.000041   0.000048
    37  H    0.001973   0.000871  -0.000983  -0.001011   0.000016  -0.000026
    38  F   -0.003547   0.026477   0.001549   0.007185   0.000002   0.000060
    39  F    0.000391  -0.001157   0.000018  -0.000172   0.000001   0.000012
              19         20         21         22         23         24
     1  C    0.258298  -0.016896   0.021693  -0.006089   0.010295  -0.002040
     2  C    0.137148  -0.012464   0.001965  -0.004311   0.010053  -0.006350
     3  C    0.138491  -0.007427   0.004552  -0.000529   0.001075  -0.007846
     4  C   -0.001226   0.017771  -0.009515   0.000800  -0.000154   0.000693
     5  C   -0.000738  -0.037465  -0.019893  -0.000484  -0.001020   0.022720
     6  C   -0.079107  -0.149986  -0.076918   0.019665  -0.027853   0.007485
     7  H   -0.033382   0.000303  -0.001266  -0.000076  -0.000043   0.001036
     8  H   -0.000329  -0.000067  -0.000046  -0.000002  -0.000014   0.000251
     9  C    0.007394   0.007534  -0.010173   0.003543   0.000104  -0.004517
    10  O   -0.014165  -0.017393   0.002485  -0.001542   0.001690  -0.002582
    11  C   -0.003891   0.105077  -0.014216  -0.009950   0.001934   0.018340
    12  C   -0.000251   0.033209  -0.041401   0.038213  -0.001002  -0.052014
    13  C    0.008767   0.108656   0.023934  -0.005495   0.004044   0.008074
    14  C    0.006091  -0.387767  -0.124001   0.053549  -0.017676  -0.049258
    15  C   -0.006085  -0.020871  -0.032733  -0.011504   0.006369   0.010753
    16  C   -0.010733  -0.512574  -0.054086  -0.040493   0.013558   0.012228
    17  H   -0.000025  -0.004802  -0.000409  -0.000285  -0.000119   0.000092
    18  H   -0.000442  -0.019228  -0.006275  -0.002521  -0.000248   0.002753
    19  B    3.600602   0.005470   0.001818   0.002528  -0.000470  -0.027030
    20  N    0.005470   7.416228   0.277418  -0.094482  -0.047630  -0.028724
    21  C    0.001818   0.277418   5.448168   0.411541   0.391339   0.354879
    22  H    0.002528  -0.094482   0.411541   0.609210  -0.061668  -0.067480
    23  H   -0.000470  -0.047630   0.391339  -0.061668   0.556888  -0.008017
    24  H   -0.027030  -0.028724   0.354879  -0.067480  -0.008017   0.632868
    25  C   -0.000268   0.362345  -0.144653  -0.008588  -0.010056  -0.000341
    26  H   -0.000701  -0.080392  -0.005341  -0.005594   0.002219   0.004327
    27  H    0.000026  -0.025893  -0.012700   0.017668   0.003778  -0.003891
    28  H    0.000143  -0.059622   0.014963   0.001195  -0.003409  -0.001910
    29  C   -0.004031   0.023247   0.003514  -0.003238   0.000547   0.011462
    30  H   -0.000013   0.000230   0.000147  -0.000015   0.000024   0.000046
    31  C   -0.001080   0.000308   0.001269  -0.000443  -0.000400   0.001911
    32  H    0.000060  -0.000159  -0.000012  -0.000012  -0.000003   0.000019
    33  C   -0.005534   0.031641   0.000924  -0.001013   0.000877   0.004331
    34  C   -0.002442   0.011335  -0.000981  -0.000026   0.000162   0.001752
    35  C    0.006590   0.006827   0.001184  -0.000398   0.000664  -0.002021
    36  H   -0.000056   0.000025  -0.000043   0.000005  -0.000003   0.000048
    37  H    0.000270  -0.000050   0.000031  -0.000004   0.000006  -0.000091
    38  F    0.399786   0.001311   0.019400   0.003788  -0.009853  -0.002649
    39  F    0.304132   0.001225   0.001317   0.000081  -0.000976   0.004066
              25         26         27         28         29         30
     1  C    0.036843   0.002954   0.000884  -0.001706  -0.114769  -0.000847
     2  C    0.007665   0.000322   0.000222  -0.000383  -0.014745  -0.000196
     3  C    0.002111   0.000395   0.000021  -0.000162  -0.000635  -0.000086
     4  C   -0.000266  -0.000352  -0.000116   0.000155   0.060333   0.000474
     5  C   -0.036064  -0.001978  -0.000021   0.001168  -0.621682   0.000367
     6  C   -0.091143  -0.004803  -0.002735   0.003644   0.091482  -0.001894
     7  H   -0.000080  -0.000015  -0.000001  -0.000007   0.000498  -0.000003
     8  H   -0.000019   0.000005  -0.000002  -0.000002  -0.000568   0.000029
     9  C   -0.009159  -0.002655   0.001026   0.002176   0.669201  -0.001309
    10  O   -0.017100  -0.001355   0.001007   0.000592   0.013541  -0.000043
    11  C   -0.028140   0.000377   0.001515  -0.010229   0.164868   0.013992
    12  C    0.174906   0.000304   0.005207   0.010418  -0.888107  -0.021017
    13  C    0.000750  -0.004494   0.000724   0.006123  -1.150796  -0.069181
    14  C    0.218607   0.031408   0.007521   0.003920  -0.532367   0.004261
    15  C   -0.302184  -0.008185   0.005086  -0.014349  -1.256769   0.034373
    16  C   -0.419812   0.026564  -0.008895  -0.024326  -1.329826   0.001888
    17  H    0.002800   0.000125   0.001061  -0.000015  -0.013323   0.000628
    18  H   -0.010722   0.006174  -0.011754  -0.007275   0.027215   0.001324
    19  B   -0.000268  -0.000701   0.000026   0.000143  -0.004031  -0.000013
    20  N    0.362345  -0.080392  -0.025893  -0.059622   0.023247   0.000230
    21  C   -0.144653  -0.005341  -0.012700   0.014963   0.003514   0.000147
    22  H   -0.008588  -0.005594   0.017668   0.001195  -0.003238  -0.000015
    23  H   -0.010056   0.002219   0.003778  -0.003409   0.000547   0.000024
    24  H   -0.000341   0.004327  -0.003891  -0.001910   0.011462   0.000046
    25  C    5.450094   0.412492   0.375427   0.437575  -0.029616  -0.000729
    26  H    0.412492   0.502916  -0.056781  -0.002417  -0.001610  -0.000044
    27  H    0.375427  -0.056781   0.605478  -0.048305  -0.002601  -0.000007
    28  H    0.437575  -0.002417  -0.048305   0.520411   0.001853  -0.000013
    29  C   -0.029616  -0.001610  -0.002601   0.001853  10.244936   0.403249
    30  H   -0.000729  -0.000044  -0.000007  -0.000013   0.403249   0.458905
    31  C    0.006006   0.000268  -0.000545  -0.000293   2.995138   0.010274
    32  H    0.000048   0.000005   0.000002  -0.000003  -0.032433  -0.003461
    33  C   -0.013904  -0.000861  -0.000138   0.000659  -1.799279  -0.022945
    34  C   -0.002240  -0.000182  -0.000110   0.000216  -0.347731   0.001915
    35  C    0.000459  -0.000114   0.000054   0.000112  -0.143604   0.002327
    36  H   -0.000031  -0.000002  -0.000002   0.000002  -0.002848   0.000209
    37  H   -0.000002  -0.000002   0.000002   0.000002   0.005294  -0.000127
    38  F   -0.002607  -0.000382  -0.000083   0.000023  -0.000496  -0.000001
    39  F   -0.000119  -0.000029  -0.000017  -0.000012   0.000038  -0.000000
              31         32         33         34         35         36
     1  C   -0.051015   0.000648  -0.510288   0.150648  -0.315802   0.005144
     2  C   -0.182716  -0.002987  -0.498286  -0.393915  -1.667350   0.012959
     3  C    0.021892  -0.001958  -0.159115  -0.961027  -0.635107  -0.009924
     4  C   -0.296894   0.011270   0.333583  -1.783049  -0.641176  -0.062896
     5  C   -1.229634  -0.012126   0.739900   0.840412  -0.177930   0.015098
     6  C    0.322022   0.008423   0.533721  -1.526316  -1.077066  -0.028201
     7  H    0.000772   0.000031   0.006318   0.000840   0.013308  -0.000382
     8  H   -0.004495  -0.000104   0.001525   0.008597  -0.019355   0.001438
     9  C    0.263537   0.022972   0.533294  -0.023889   0.394547   0.012956
    10  O    0.005314   0.000489  -0.024878   0.007418   0.030649   0.000040
    11  C    0.583615   0.001524   0.351352  -1.318233  -0.625974  -0.018576
    12  C   -0.726262  -0.006564   0.267863  -0.110796   0.062113   0.000681
    13  C   -1.496853  -0.045156  -0.018785  -0.505400  -0.104091   0.006378
    14  C    0.410189   0.005365  -0.781074  -0.244011  -0.052060  -0.003060
    15  C   -1.214910  -0.016525   0.263101   0.046557  -0.050690  -0.000649
    16  C   -0.211444   0.005203  -0.260824  -0.107269  -0.057498  -0.001993
    17  H   -0.009357   0.000488   0.013532  -0.001720  -0.000705   0.000041
    18  H    0.007078  -0.000212   0.007323   0.001215  -0.000577   0.000048
    19  B   -0.001080   0.000060  -0.005534  -0.002442   0.006590  -0.000056
    20  N    0.000308  -0.000159   0.031641   0.011335   0.006827   0.000025
    21  C    0.001269  -0.000012   0.000924  -0.000981   0.001184  -0.000043
    22  H   -0.000443  -0.000012  -0.001013  -0.000026  -0.000398   0.000005
    23  H   -0.000400  -0.000003   0.000877   0.000162   0.000664  -0.000003
    24  H    0.001911   0.000019   0.004331   0.001752  -0.002021   0.000048
    25  C    0.006006   0.000048  -0.013904  -0.002240   0.000459  -0.000031
    26  H    0.000268   0.000005  -0.000861  -0.000182  -0.000114  -0.000002
    27  H   -0.000545   0.000002  -0.000138  -0.000110   0.000054  -0.000002
    28  H   -0.000293  -0.000003   0.000659   0.000216   0.000112   0.000002
    29  C    2.995138  -0.032433  -1.799279  -0.347731  -0.143604  -0.002848
    30  H    0.010274  -0.003461  -0.022945   0.001915   0.002327   0.000209
    31  C   11.137396   0.447400  -1.908736  -1.947168  -0.434577  -0.019934
    32  H    0.447400   0.454597  -0.051342   0.004051   0.013372   0.001844
    33  C   -1.908736  -0.051342  11.408520  -1.007500  -1.806236  -0.057499
    34  C   -1.947168   0.004051  -1.007500  11.829977   3.182690   0.526132
    35  C   -0.434577   0.013372  -1.806236   3.182690  10.039751  -0.029485
    36  H   -0.019934   0.001844  -0.057499   0.526132  -0.029485   0.459302
    37  H    0.018641   0.000929   0.017219  -0.030991   0.405345  -0.009684
    38  F   -0.000205  -0.000002  -0.000385   0.000919   0.003954   0.000006
    39  F   -0.000118  -0.000000  -0.000738   0.000459  -0.000176   0.000008
              37         38         39
     1  C   -0.009351  -0.090566   0.178409
     2  C   -0.040274   0.183030  -0.320032
     3  C    0.035774   0.029207   0.002745
     4  C   -0.058974   0.020450   0.030294
     5  C    0.001334  -0.002038   0.028451
     6  C   -0.002275  -0.115181   0.128453
     7  H    0.002136  -0.000370   0.009044
     8  H   -0.002899  -0.000133  -0.000582
     9  C   -0.002080   0.007041   0.003164
    10  O    0.000611   0.006028  -0.006651
    11  C    0.005372   0.002141  -0.001282
    12  C   -0.001999  -0.065635  -0.011280
    13  C    0.001973  -0.003547   0.000391
    14  C    0.000871   0.026477  -0.001157
    15  C   -0.000983   0.001549   0.000018
    16  C   -0.001011   0.007185  -0.000172
    17  H    0.000016   0.000002   0.000001
    18  H   -0.000026   0.000060   0.000012
    19  B    0.000270   0.399786   0.304132
    20  N   -0.000050   0.001311   0.001225
    21  C    0.000031   0.019400   0.001317
    22  H   -0.000004   0.003788   0.000081
    23  H    0.000006  -0.009853  -0.000976
    24  H   -0.000091  -0.002649   0.004066
    25  C   -0.000002  -0.002607  -0.000119
    26  H   -0.000002  -0.000382  -0.000029
    27  H    0.000002  -0.000083  -0.000017
    28  H    0.000002   0.000023  -0.000012
    29  C    0.005294  -0.000496   0.000038
    30  H   -0.000127  -0.000001  -0.000000
    31  C    0.018641  -0.000205  -0.000118
    32  H    0.000929  -0.000002  -0.000000
    33  C    0.017219  -0.000385  -0.000738
    34  C   -0.030991   0.000919   0.000459
    35  C    0.405345   0.003954  -0.000176
    36  H   -0.009684   0.000006   0.000008
    37  H    0.465199   0.000017   0.000014
    38  F    0.000017   8.682571  -0.086791
    39  F    0.000014  -0.086791   8.766801
 Mulliken charges:
               1
     1  C   -0.670956
     2  C   -0.107333
     3  C   -0.145979
     4  C    0.245913
     5  C    0.077168
     6  C   -0.030832
     7  H    0.248224
     8  H    0.186351
     9  C   -0.107775
    10  O    0.049514
    11  C    0.131955
    12  C   -0.354610
    13  C    0.220434
    14  C   -0.615723
    15  C   -0.065710
    16  C    0.247052
    17  H    0.206126
    18  H    0.214369
    19  B    0.314388
    20  N    0.113730
    21  C   -0.427877
    22  H    0.164457
    23  H    0.184989
    24  H    0.166627
    25  C   -0.360284
    26  H    0.187432
    27  H    0.147889
    28  H    0.169088
    29  C   -0.425340
    30  H    0.187267
    31  C   -0.495956
    32  H    0.194320
    33  C    0.413677
    34  C   -0.300296
    35  C   -0.321956
    36  H    0.202905
    37  H    0.199766
    38  F   -0.014022
    39  F   -0.028990
 Sum of Mulliken charges =  -0.00000
 Mulliken charges with hydrogens summed into heavy atoms:
               1
     1  C   -0.670956
     2  C    0.140892
     3  C    0.040373
     4  C    0.245913
     5  C    0.077168
     6  C   -0.030832
     9  C   -0.107775
    10  O    0.049514
    11  C    0.131955
    12  C   -0.354610
    13  C    0.220434
    14  C   -0.615723
    15  C    0.140416
    16  C    0.461421
    19  B    0.314388
    20  N    0.113730
    21  C    0.088196
    25  C    0.144124
    29  C   -0.238073
    31  C   -0.301637
    33  C    0.413677
    34  C   -0.097391
    35  C   -0.122190
    38  F   -0.014022
    39  F   -0.028990
 Electronic spatial extent (au):  <R**2>=          20855.9299
 Charge=              0.0000 electrons
 Dipole moment (field-independent basis, Debye):
    X=             -0.0459    Y=              3.1294    Z=             -1.4215  Tot=              3.4375
 Quadrupole moment (field-independent basis, Debye-Ang):
   XX=           -123.1107   YY=           -122.1351   ZZ=           -137.5649
   XY=             -3.3656   XZ=             14.4548   YZ=             -6.8990
 Traceless Quadrupole moment (field-independent basis, Debye-Ang):
   XX=              4.4929   YY=              5.4685   ZZ=             -9.9613
   XY=             -3.3656   XZ=             14.4548   YZ=             -6.8990
 Octapole moment (field-independent basis, Debye-Ang**2):
  XXX=           1154.8491  YYY=          -1310.8146  ZZZ=            226.4673  XYY=            445.5484
  XXY=           -432.0332  XXZ=             -1.3224  XZZ=            405.8284  YZZ=           -454.9341
  YYZ=              0.2145  XYZ=             51.7247
 Hexadecapole moment (field-independent basis, Debye-Ang**3):
 XXXX=         -11115.8756 YYYY=         -12549.5963 ZZZZ=          -2690.4760 XXXY=           3647.3361
 XXXZ=          -1029.8393 YYYX=           4065.3092 YYYZ=            992.6334 ZZZX=          -1460.1752
 ZZZY=           1556.8895 XXYY=          -4238.1473 XXZZ=          -2223.4521 YYZZ=          -2519.2224
 XXYZ=            278.9375 YYXZ=           -202.2827 ZZXY=           1129.1394
 N-N= 2.108993990557D+03 E-N=-6.846101298509D+03  KE= 1.120895074092D+03
 Breneman (CHELPG) radii used.
 Generate Potential Derived Charges using the Breneman model, NDens= 1.
 Grid spacing= 0.300 Box extension= 2.800
 NStep X,Y,Z=   51     47     41   Total possible points=       98277
 Number of Points to Fit=   21249

 **********************************************************************

            Electrostatic Properties Using The SCF Density.

 **********************************************************************

       Atomic Center    1 is at  -2.128739  1.637477  1.202478
       Atomic Center    2 is at  -0.893823  1.815554  1.885195
       Atomic Center    3 is at  -0.097421  2.911659  1.696217
       Atomic Center    4 is at  -0.492611  3.922131  0.788667
       Atomic Center    5 is at  -1.712029  3.776140  0.096965
       Atomic Center    6 is at  -2.514630  2.634984  0.314169
       Atomic Center    7 is at  -0.580594  1.044898  2.580187
       Atomic Center    8 is at   0.838514  3.014026  2.233415
       Atomic Center    9 is at  -2.136388  4.768359 -0.829295
       Atomic Center   10 is at  -3.686593  2.487937 -0.350356
       Atomic Center   11 is at  -3.375128  4.577868 -1.506442
       Atomic Center   12 is at  -4.134541  3.430623 -1.240894
       Atomic Center   13 is at  -3.815133  5.527810 -2.452375
       Atomic Center   14 is at  -5.350812  3.194774 -1.877633
       Atomic Center   15 is at  -5.029343  5.282798 -3.112842
       Atomic Center   16 is at  -5.767592  4.156455 -2.824429
       Atomic Center   17 is at  -5.392708  5.992806 -3.847653
       Atomic Center   18 is at  -6.707533  4.004626 -3.339541
       Atomic Center   19 is at  -2.947113  0.365723  1.482680
       Atomic Center   20 is at  -6.088201  2.031456 -1.599772
       Atomic Center   21 is at  -6.585002  1.910519 -0.233126
       Atomic Center   22 is at  -7.429840  2.593530 -0.049552
       Atomic Center   23 is at  -6.922289  0.885642 -0.065732
       Atomic Center   24 is at  -5.793952  2.120939  0.481896
       Atomic Center   25 is at  -7.086784  1.643674 -2.576542
       Atomic Center   26 is at  -7.405388  0.622469 -2.356899
       Atomic Center   27 is at  -7.983855  2.285181 -2.563374
       Atomic Center   28 is at  -6.659850  1.656232 -3.580903
       Atomic Center   29 is at  -2.995889  6.680126 -2.685908
       Atomic Center   30 is at  -3.334531  7.414871 -3.408750
       Atomic Center   31 is at  -1.822617  6.860095 -2.025141
       Atomic Center   32 is at  -1.217690  7.740474 -2.214800
       Atomic Center   33 is at  -1.356434  5.896942 -1.073016
       Atomic Center   34 is at  -0.127896  6.032907 -0.362201
       Atomic Center   35 is at   0.286680  5.089745  0.529856
       Atomic Center   36 is at   0.484073  6.910350 -0.544945
       Atomic Center   37 is at   1.225778  5.212970  1.058141
       Atomic Center   38 is at  -4.125204  0.077828  0.941123
       Atomic Center   39 is at  -2.479917 -0.551796  2.337731
   21249 points will be used for fitting atomic charges
 Fitting point charges to electrostatic potential
 Charges from ESP fit, RMS=   0.00487 RRMS=   0.39133:
 ESP charges:
               1
     1  C   -0.554646
     2  C    0.041872
     3  C   -0.345215
     4  C    0.291023
     5  C   -0.197873
     6  C    0.558926
     7  H    0.103149
     8  H    0.148462
     9  C    0.075543
    10  O   -0.399261
    11  C   -0.112017
    12  C    0.199643
    13  C    0.213201
    14  C    0.154841
    15  C   -0.370838
    16  C   -0.080419
    17  H    0.170008
    18  H    0.131502
    19  B    0.921719
    20  N   -0.306616
    21  C    0.016607
    22  H   -0.002191
    23  H    0.081574
    24  H    0.055033
    25  C   -0.086650
    26  H    0.081323
    27  H    0.057750
    28  H    0.053054
    29  C   -0.193559
    30  H    0.133449
    31  C   -0.223512
    32  H    0.139213
    33  C    0.125898
    34  C   -0.158368
    35  C   -0.259293
    36  H    0.134421
    37  H    0.147025
    38  F   -0.368889
    39  F   -0.375886
 Sum of ESP charges =  -0.00000
 ESP charges with hydrogens summed into heavy atoms:
               1
     1  C   -0.554646
     2  C    0.145021
     3  C   -0.196753
     4  C    0.291023
     5  C   -0.197873
     6  C    0.558926
     9  C    0.075543
    10  O   -0.399261
    11  C   -0.112017
    12  C    0.199643
    13  C    0.213201
    14  C    0.154841
    15  C   -0.200830
    16  C    0.051083
    19  B    0.921719
    20  N   -0.306616
    21  C    0.151022
    25  C    0.105477
    29  C   -0.060111
    31  C   -0.084299
    33  C    0.125898
    34  C   -0.023947
    35  C   -0.112269
    38  F   -0.368889
    39  F   -0.375886
 Charge=  -0.00000 Dipole=     0.0046     3.3072    -1.4330 Tot=     3.6043
 -----------------------------------------------------------------

              Electrostatic Properties (Atomic Units)

 -----------------------------------------------------------------
    Center     Electric         -------- Electric Field --------
               Potential          X             Y             Z
 -----------------------------------------------------------------
    1 Atom    -14.774928
    2 Atom    -14.759461
    3 Atom    -14.768616
    4 Atom    -14.744811
    5 Atom    -14.747942
    6 Atom    -14.681183
    7 Atom     -1.099856
    8 Atom     -1.094526
    9 Atom    -14.748240
   10 Atom    -22.298549
   11 Atom    -14.751247
   12 Atom    -14.699780
   13 Atom    -14.755582
   14 Atom    -14.728780
   15 Atom    -14.767254
   16 Atom    -14.764502
   17 Atom     -1.094888
   18 Atom     -1.092508
   19 Atom    -11.359017
   20 Atom    -18.381694
   21 Atom    -14.757902
   22 Atom     -1.124352
   23 Atom     -1.122277
   24 Atom     -1.123676
   25 Atom    -14.748067
   26 Atom     -1.111689
   27 Atom     -1.114134
   28 Atom     -1.109447
   29 Atom    -14.762638
   30 Atom     -1.092953
   31 Atom    -14.762359
   32 Atom     -1.091725
   33 Atom    -14.753205
   34 Atom    -14.755168
   35 Atom    -14.759831
   36 Atom     -1.087080
   37 Atom     -1.089567
   38 Atom    -26.600165
   39 Atom    -26.599502
 -----------------------------------------------------------------
 Unable to Open any file for archive entry.
 1\1\GINC-IRENE4762\SP\RwB97XD\GenECP\C20H14B1F2N1O1\PENASFRA\10-Apr-20
 24\0\\# wb97xd/genecp scrf=(solvent=toluene,pcm) nosymm pop=(chelpg) s
 cfcyc=300\\f_naphtoxanthene_chelpg\\0,1\C,0,-2.128739,1.637477,1.20247
 8\C,0,-0.893823,1.815554,1.885195\C,0,-0.097421,2.911659,1.696217\C,0,
 -0.492611,3.922131,0.788667\C,0,-1.712029,3.77614,0.096965\C,0,-2.5146
 3,2.634984,0.314169\H,0,-0.580594,1.044898,2.580187\H,0,0.838514,3.014
 026,2.233415\C,0,-2.136388,4.768359,-0.829295\O,0,-3.686593,2.487937,-
 0.350356\C,0,-3.375128,4.577868,-1.506442\C,0,-4.134541,3.430623,-1.24
 0894\C,0,-3.815133,5.52781,-2.452375\C,0,-5.350812,3.194774,-1.877633\
 C,0,-5.029343,5.282798,-3.112842\C,0,-5.767592,4.156455,-2.824429\H,0,
 -5.392708,5.992806,-3.847653\H,0,-6.707533,4.004626,-3.339541\B,0,-2.9
 47113,0.365723,1.48268\N,0,-6.088201,2.031456,-1.599772\C,0,-6.585002,
 1.910519,-0.233126\H,0,-7.42984,2.59353,-0.049552\H,0,-6.922289,0.8856
 42,-0.065732\H,0,-5.793952,2.120939,0.481896\C,0,-7.086784,1.643674,-2
 .576542\H,0,-7.405388,0.622469,-2.356899\H,0,-7.983855,2.285181,-2.563
 374\H,0,-6.65985,1.656232,-3.580903\C,0,-2.995889,6.680126,-2.685908\H
 ,0,-3.334531,7.414871,-3.40875\C,0,-1.822617,6.860095,-2.025141\H,0,-1
 .21769,7.740474,-2.2148\C,0,-1.356434,5.896942,-1.073016\C,0,-0.127896
 ,6.032907,-0.362201\C,0,0.28668,5.089745,0.529856\H,0,0.484073,6.91035
 ,-0.544945\H,0,1.225778,5.21297,1.058141\F,0,-4.125204,0.077828,0.9411
 23\F,0,-2.479917,-0.551796,2.337731\\Version=AS64L-G16RevC.02\HF=-1125
 .1560706\RMSD=4.573e-09\Dipole=-0.0180418,1.2312166,-0.5592644\Quadrup
 ole=3.3403281,4.0656874,-7.4060155,-2.5022488,10.7467638,-5.129248\PG=
 C01 [X(C20H14B1F2N1O1)]\\@
 The archive entry for this job was punched.


 HE THAT IS UNAWARE OF HIS IGNORANCE WILL BE MISLED BY HIS KNOWLEDGE.

                                        -- WHATLEY
 Job cpu time:       0 days  2 hours 30 minutes 49.7 seconds.
 Elapsed time:       0 days  0 hours  1 minutes 34.3 seconds.
 File lengths (MBytes):  RWF=    355 Int=      0 D2E=      0 Chk=     26 Scr=      1
 Normal termination of Gaussian 16 at Wed Apr 10 16:40:54 2024.
