 Entering Gaussian System, Link 0=/ccc/products/gaussian-16-C.02/system/default/g16/g16
 Input=f_naphthalene_chelpg.gjf
 Output=f_naphthalene_chelpg.log
 Initial command:
 /ccc/products/gaussian-16-C.02/system/default/g16/l1.exe "/ccc/scratch/cont003/gen7343/penasfra/flp/b-n_flp/f_naphtalene/reac/Gau-624899.inp" -scrdir="/ccc/scratch/cont003/gen7343/penasfra/flp/b-n_flp/f_naphtalene/reac/"
 Entering Link 1 = /ccc/products/gaussian-16-C.02/system/default/g16/l1.exe PID=    624948.
  
 Copyright (c) 1988-2021, Gaussian, Inc.  All Rights Reserved.
  
 This is part of the Gaussian(R) 16 program.  It is based on
 the Gaussian(R) 09 system (copyright 2009, Gaussian, Inc.),
 the Gaussian(R) 03 system (copyright 2003, Gaussian, Inc.),
 the Gaussian(R) 98 system (copyright 1998, Gaussian, Inc.),
 the Gaussian(R) 94 system (copyright 1995, Gaussian, Inc.),
 the Gaussian 92(TM) system (copyright 1992, Gaussian, Inc.),
 the Gaussian 90(TM) system (copyright 1990, Gaussian, Inc.),
 the Gaussian 88(TM) system (copyright 1988, Gaussian, Inc.),
 the Gaussian 86(TM) system (copyright 1986, Carnegie Mellon
 University), and the Gaussian 82(TM) system (copyright 1983,
 Carnegie Mellon University). Gaussian is a federally registered
 trademark of Gaussian, Inc.
  
 This software contains proprietary and confidential information,
 including trade secrets, belonging to Gaussian, Inc.
  
 This software is provided under written license and may be
 used, copied, transmitted, or stored only in accord with that
 written license.
  
 The following legend is applicable only to US Government
 contracts under FAR:
  
                    RESTRICTED RIGHTS LEGEND
  
 Use, reproduction and disclosure by the US Government is
 subject to restrictions as set forth in subparagraphs (a)
 and (c) of the Commercial Computer Software - Restricted
 Rights clause in FAR 52.227-19.
  
 Gaussian, Inc.
 340 Quinnipiac St., Bldg. 40, Wallingford CT 06492
  
  
 ---------------------------------------------------------------
 Warning -- This program may not be used in any manner that
 competes with the business of Gaussian, Inc. or will provide
 assistance to any competitor of Gaussian, Inc.  The licensee
 of this program is prohibited from giving any competitor of
 Gaussian, Inc. access to this program.  By using this program,
 the user acknowledges that Gaussian, Inc. is engaged in the
 business of creating and licensing software in the field of
 computational chemistry and represents and warrants to the
 licensee that it is not a competitor of Gaussian, Inc. and that
 it will not use this program in any manner prohibited above.
 ---------------------------------------------------------------
  

 Cite this work as:
 Gaussian 16, Revision C.02,
 M. J. Frisch, G. W. Trucks, H. B. Schlegel, G. E. Scuseria, 
 M. A. Robb, J. R. Cheeseman, G. Scalmani, V. Barone, 
 G. A. Petersson, H. Nakatsuji, X. Li, M. Caricato, A. V. Marenich, 
 J. Bloino, B. G. Janesko, R. Gomperts, B. Mennucci, H. P. Hratchian, 
 J. V. Ortiz, A. F. Izmaylov, J. L. Sonnenberg, D. Williams-Young, 
 F. Ding, F. Lipparini, F. Egidi, J. Goings, B. Peng, A. Petrone, 
 T. Henderson, D. Ranasinghe, V. G. Zakrzewski, J. Gao, N. Rega, 
 G. Zheng, W. Liang, M. Hada, M. Ehara, K. Toyota, R. Fukuda, 
 J. Hasegawa, M. Ishida, T. Nakajima, Y. Honda, O. Kitao, H. Nakai, 
 T. Vreven, K. Throssell, J. A. Montgomery, Jr., J. E. Peralta, 
 F. Ogliaro, M. J. Bearpark, J. J. Heyd, E. N. Brothers, K. N. Kudin, 
 V. N. Staroverov, T. A. Keith, R. Kobayashi, J. Normand, 
 K. Raghavachari, A. P. Rendell, J. C. Burant, S. S. Iyengar, 
 J. Tomasi, M. Cossi, J. M. Millam, M. Klene, C. Adamo, R. Cammi, 
 J. W. Ochterski, R. L. Martin, K. Morokuma, O. Farkas, 
 J. B. Foresman, and D. J. Fox, Gaussian, Inc., Wallingford CT, 2019.
 
 ******************************************
 Gaussian 16:  AS64L-G16RevC.02  7-Dec-2021
                10-Apr-2024 
 ******************************************
 %nprocshared=128
 Will use up to  128 processors via shared memory.
 %mem=30GB
 %chk=f_naphthalene_chelpg.chk
 ----------------------------------------------------------------------
 # wb97xd/genecp scrf=(solvent=toluene,pcm) nosymm pop=(chelpg) scfcyc=
 300
 ----------------------------------------------------------------------
 1/38=1,172=1/1;
 2/12=2,15=1,17=6,18=5,40=1/2;
 3/5=7,11=2,16=1,17=8,25=1,30=1,70=2201,72=13,74=-58/1,2,3;
 4//1;
 5/5=2,7=300,38=5,53=13/2;
 6/7=2,8=2,9=2,10=2,15=8,20=3,28=1/1,2;
 99/5=1,9=1/99;
 --------------------
 f_naphthalene_chelpg
 --------------------
 Symbolic Z-matrix:
 Charge =  0 Multiplicity = 1
 C                    -5.40367  -0.79041   0.26317 
 C                    -4.05464  -0.77454   0.06125 
 C                    -3.33959   0.43261  -0.02868 
 C                    -4.00216   1.67135   0.06265 
 C                    -5.4057    1.64845   0.27326 
 C                    -6.07526   0.45451   0.37614 
 H                    -5.96623  -1.71448   0.33075 
 C                    -1.94799   0.29159  -0.21286 
 C                    -3.19742   2.83091  -0.06456 
 H                    -5.94864   2.58437   0.35371 
 H                    -7.14671   0.45303   0.53995 
 C                    -1.84282   2.70769  -0.2632 
 C                    -1.2078    1.44132  -0.3329 
 H                    -3.65738   3.81173  -0.00422 
 H                    -1.23878   3.60354  -0.36096 
 H                    -0.13264   1.39861  -0.47273 
 B                    -1.57151  -1.26096  -0.15133 
 N                    -3.18373  -1.93712  -0.13745 
 C                    -3.34278  -2.94096   0.94271 
 H                    -4.34592  -3.37035   0.90903 
 H                    -2.60328  -3.72747   0.79862 
 H                    -3.17322  -2.46158   1.9036 
 C                    -3.48694  -2.56408  -1.45212 
 H                    -2.79278  -3.38527  -1.61988 
 H                    -4.51473  -2.93202  -1.4534 
 H                    -3.36025  -1.82108  -2.23744 
 F                    -0.97897  -1.67497   1.0402 
 F                    -0.91546  -1.8201   -1.24145 
 
                          Input orientation:                          
 ---------------------------------------------------------------------
 Center     Atomic      Atomic             Coordinates (Angstroms)
 Number     Number       Type             X           Y           Z
 ---------------------------------------------------------------------
      1          6           0       -5.403671   -0.790410    0.263171
      2          6           0       -4.054638   -0.774535    0.061254
      3          6           0       -3.339592    0.432607   -0.028684
      4          6           0       -4.002164    1.671348    0.062651
      5          6           0       -5.405698    1.648449    0.273259
      6          6           0       -6.075265    0.454513    0.376142
      7          1           0       -5.966233   -1.714481    0.330754
      8          6           0       -1.947989    0.291594   -0.212857
      9          6           0       -3.197417    2.830909   -0.064556
     10          1           0       -5.948641    2.584368    0.353709
     11          1           0       -7.146706    0.453028    0.539947
     12          6           0       -1.842817    2.707687   -0.263199
     13          6           0       -1.207801    1.441317   -0.332899
     14          1           0       -3.657377    3.811732   -0.004220
     15          1           0       -1.238779    3.603538   -0.360955
     16          1           0       -0.132641    1.398609   -0.472726
     17          5           0       -1.571510   -1.260962   -0.151334
     18          7           0       -3.183734   -1.937116   -0.137453
     19          6           0       -3.342784   -2.940957    0.942705
     20          1           0       -4.345916   -3.370355    0.909033
     21          1           0       -2.603278   -3.727468    0.798618
     22          1           0       -3.173224   -2.461581    1.903598
     23          6           0       -3.486943   -2.564082   -1.452116
     24          1           0       -2.792779   -3.385271   -1.619876
     25          1           0       -4.514730   -2.932018   -1.453401
     26          1           0       -3.360254   -1.821082   -2.237437
     27          9           0       -0.978968   -1.674971    1.040204
     28          9           0       -0.915464   -1.820103   -1.241447
 ---------------------------------------------------------------------
                    Distance matrix (angstroms):
                    1          2          3          4          5
     1  C    0.000000
     2  C    1.364153   0.000000
     3  C    2.416893   1.405906   0.000000
     4  C    2.839838   2.446446   1.407772   0.000000
     5  C    2.438881   2.782294   2.416244   1.419432   0.000000
     6  C    1.419026   2.385927   2.765551   2.424193   1.372730
     7  H    1.083951   2.147167   3.411514   3.923428   3.409810
     8  C    3.652270   2.376918   1.410802   2.489831   3.746080
     9  C    4.253106   3.708083   2.402780   1.417174   2.527615
    10  H    3.419695   3.867170   3.403445   2.169584   1.084990
    11  H    2.158915   3.361092   3.849399   3.405915   2.128676
    12  C    5.019306   4.138030   2.733372   2.417221   3.755515
    13  C    4.789700   3.629027   2.377935   2.831579   4.246489
    14  H    4.929579   4.603906   3.394123   2.169007   2.795249
    15  H    6.086266   5.222532   3.818196   3.398396   4.646269
    16  H    5.754746   4.515501   3.378590   3.915894   5.331420
    17  B    3.883129   2.539238   2.451394   3.814749   4.831765
    18  N    2.530525   1.466135   2.377332   3.705520   4.238170
    19  C    3.055139   2.444806   3.510633   4.741586   5.076063
    20  H    2.862184   2.746244   4.044072   5.123797   5.168727
    21  H    4.093313   3.371938   4.304975   5.625455   6.085232
    22  H    3.233992   2.649009   3.483923   4.599710   4.953210
    23  C    3.124415   2.411440   3.320846   4.527564   4.940036
    24  H    4.134722   3.351780   4.172180   5.464696   5.979101
    25  H    2.885017   2.675929   3.838160   4.873614   4.975526
    26  H    3.389820   2.619429   3.155651   4.230782   4.746060
    27  F    4.578671   3.350951   3.340202   4.614453   5.588315
    28  F    4.844393   3.555932   3.524471   4.839279   5.872596
                    6          7          8          9         10
     6  C    0.000000
     7  H    2.172207   0.000000
     8  C    4.172274   4.523951   0.000000
     9  C    3.758122   5.336964   2.833934   0.000000
    10  H    2.133734   4.298946   4.645754   2.793736   0.000000
    11  H    1.083891   2.476969   5.255419   4.649368   2.452071
    12  C    4.837268   6.075435   2.418905   1.374621   4.153742
    13  C    5.016844   5.748232   1.372644   2.441628   4.924790
    14  H    4.154729   5.998504   3.918789   1.084996   2.623819
    15  H    5.818184   7.149029   3.390263   2.126281   4.871576
    16  H    6.076732   6.660909   2.142079   3.407483   5.992902
    17  B    4.848185   4.444286   1.598734   4.403920   5.848154
    18  N    3.787429   2.830386   2.549490   4.768602   5.322572
    19  C    4.395073   2.959934   3.705423   5.860900   6.137314
    20  H    4.231340   2.387834   4.518690   6.381426   6.191594
    21  H    5.451802   3.947212   4.195872   6.641565   7.157421
    22  H    4.388459   3.291336   3.682466   5.646651   5.963782
    23  C    4.376512   3.169752   3.472611   5.578089   5.985608
    24  H    5.431643   4.082561   4.026501   6.420564   7.034991
    25  H    4.153443   2.602396   4.303346   6.072523   5.979320
    26  H    4.402319   3.660341   3.249125   5.137017   5.729029
    27  F    5.563086   5.037628   2.525181   5.142467   6.581101
    28  F    5.866346   5.290864   2.565808   5.312654   6.875810
                   11         12         13         14         15
    11  H    0.000000
    12  C    5.818915   0.000000
    13  C    6.083516   1.418378   0.000000
    14  H    4.873646   2.139769   3.424517   0.000000
    15  H    6.755808   1.084881   2.162625   2.453614   0.000000
    16  H    7.149597   2.163860   1.085055   4.297258   2.469361
    17  B    5.873537   3.979484   2.732684   5.486776   4.880370
    18  N    4.677265   4.836121   3.918714   5.769865   5.876364
    19  C    5.113822   5.967519   5.038814   6.826012   6.996912
    20  H    4.753831   6.676992   5.877274   7.272585   7.739661
    21  H    6.179498   6.566352   5.472113   7.654751   7.546530
    22  H    5.113027   5.760757   4.908912   6.574848   6.756918
    23  C    5.144427   5.648736   4.742400   6.540371   6.654653
    24  H    6.193065   6.314043   5.240650   7.426623   7.269336
    25  H    4.728559   6.353107   5.596192   6.950780   7.391805
    26  H    5.217534   5.168170   4.347823   6.066641   6.119505
    27  F    6.543671   4.653255   3.413067   6.194240   5.467486
    28  F    6.867959   4.724176   3.398203   6.384856   5.504151
                   16         17         18         19         20
    16  H    0.000000
    17  B    3.040881   0.000000
    18  N    4.533061   1.748326   0.000000
    19  C    5.580349   2.675204   1.483150   0.000000
    20  H    6.511832   3.642972   2.121314   1.091691   0.000000
    21  H    5.830697   2.837359   2.102027   1.089142   1.782276
    22  H    5.458308   2.868749   2.107383   1.087137   1.786123
    23  C    5.283320   2.656885   1.487737   2.428577   2.638737
    24  H    5.592655   2.856712   2.108928   2.658334   2.967800
    25  H    6.238490   3.626341   2.119693   2.667370   2.408678
    26  H    4.888568   2.804490   2.110582   3.371606   3.643082
    27  F    3.528756   1.393654   2.513283   2.683254   3.771985
    28  F    3.400566   1.389741   2.525380   3.452349   4.335418
                   21         22         23         24         25
    21  H    0.000000
    22  H    1.774342   0.000000
    23  C    2.683307   3.371905   0.000000
    24  H    2.449923   3.662350   1.088282   0.000000
    25  H    3.059081   3.645599   1.091661   1.788370   0.000000
    26  H    3.664007   4.194448   1.088498   1.774851   1.783734
    27  F    2.628591   2.485752   3.645835   3.645691   4.505535
    28  F    3.263223   3.924319   2.685217   2.473312   3.773062
                   26         27         28
    26  H    0.000000
    27  F    4.053986   0.000000
    28  F    2.639885   2.287144   0.000000
 Symmetry turned off by external request.
 Stoichiometry    C12H12BF2N
 Framework group  C1[X(C12H12BF2N)]
 Deg. of freedom    78
 Full point group                 C1      NOp   1
 Rotational constants (GHZ):           0.7886127           0.5642812           0.3788136
 General basis read from cards:  (5D, 7F)
 ======================================================================================================
                                       Pseudopotential Parameters
 ======================================================================================================
  Center     Atomic      Valence      Angular      Power
  Number     Number     Electrons     Momentum     of R      Exponent        Coefficient   SO-Coeffient
 ======================================================================================================
    1          6
                                   No pseudopotential on this center.
    2          6
                                   No pseudopotential on this center.
    3          6
                                   No pseudopotential on this center.
    4          6
                                   No pseudopotential on this center.
    5          6
                                   No pseudopotential on this center.
    6          6
                                   No pseudopotential on this center.
    7          1
                                   No pseudopotential on this center.
    8          6
                                   No pseudopotential on this center.
    9          6
                                   No pseudopotential on this center.
   10          1
                                   No pseudopotential on this center.
   11          1
                                   No pseudopotential on this center.
   12          6
                                   No pseudopotential on this center.
   13          6
                                   No pseudopotential on this center.
   14          1
                                   No pseudopotential on this center.
   15          1
                                   No pseudopotential on this center.
   16          1
                                   No pseudopotential on this center.
   17          5
                                   No pseudopotential on this center.
   18          7
                                   No pseudopotential on this center.
   19          6
                                   No pseudopotential on this center.
   20          1
                                   No pseudopotential on this center.
   21          1
                                   No pseudopotential on this center.
   22          1
                                   No pseudopotential on this center.
   23          6
                                   No pseudopotential on this center.
   24          1
                                   No pseudopotential on this center.
   25          1
                                   No pseudopotential on this center.
   26          1
                                   No pseudopotential on this center.
   27          9
                                   No pseudopotential on this center.
   28          9
                                   No pseudopotential on this center.
 ======================================================================================================
   436 basis functions,   684 primitive gaussians,   452 cartesian basis functions
    57 alpha electrons       57 beta electrons
       nuclear repulsion energy      1105.7358789918 Hartrees.
 NAtoms=   28 NActive=   28 NUniq=   28 SFac= 1.00D+00 NAtFMM=   60 NAOKFM=F Big=F
 Integral buffers will be    131072 words long.
 Raffenetti 2 integral format.
 Two-electron integral symmetry is turned off.
 Nuclear repulsion after empirical dispersion term =     1105.7131210926 Hartrees.
 ------------------------------------------------------------------------------
 Polarizable Continuum Model (PCM)
 =================================
 Model                : PCM.
 Atomic radii         : UFF (Universal Force Field).
 Polarization charges : Total charges.
 Charge compensation  : None.
 Solution method      : On-the-fly selection.
 Cavity type          : Scaled VdW (van der Waals Surface) (Alpha=1.100).
 Cavity algorithm     : GePol (No added spheres)
                        Default sphere list used, NSphG=   28.
                        Lebedev-Laikov grids with approx.  5.0 points / Ang**2.
                        Smoothing algorithm: York/Karplus (Gamma=1.0000).
                        Polarization charges: spherical gaussians, with
                                              point-specific exponents (IZeta= 3).
                        Self-potential: point-specific (ISelfS= 7).
                        Self-field    : sphere-specific E.n sum rule (ISelfD= 2).
 Solvent              : Toluene, Eps=   2.374100 Eps(inf)=   2.238315
 ------------------------------------------------------------------------------
 One-electron integrals computed using PRISM.
   1 Symmetry operations used in ECPInt.
 ECPInt:  NShTT=   12246 NPrTT=   43102 LenC2=   11719 LenP2D=   29565.
 LDataN:  DoStor=T MaxTD1= 4 Len=   56
 Number of processors reduced to 103 by ecpmxn.
 NBasis=   436 RedAO= T EigKep=  1.66D-06  NBF=   436
 NBsUse=   431 1.00D-06 EigRej=  8.53D-07 NBFU=   431
 ExpMin= 3.15D-02 ExpMax= 1.14D+04 ExpMxC= 1.72D+03 IAcc=3 IRadAn=         5 AccDes= 0.00D+00
 Harris functional with IExCor= 4639 and IRadAn=       5 diagonalized for initial guess.
 HarFok:  IExCor= 4639 AccDes= 0.00D+00 IRadAn=         5 IDoV= 1 UseB2=F ITyADJ=14
 ICtDFT=  3500011 ScaDFX=  1.000000  1.000000  1.000000  1.000000
 FoFCou: FMM=F IPFlag=           0 FMFlag=      100000 FMFlg1=           0
         NFxFlg=           0 DoJE=T BraDBF=F KetDBF=T FulRan=T
         wScrn=  0.000000 ICntrl=       500 IOpCl=  0 I1Cent=   200000004 NGrid=           0
         NMat0=    1 NMatS0=      1 NMatT0=    0 NMatD0=    1 NMtDS0=    0 NMtDT0=    0
 Symmetry not used in FoFCou.
 Requested convergence on RMS density matrix=1.00D-08 within 300 cycles.
 Requested convergence on MAX density matrix=1.00D-06.
 Requested convergence on             energy=1.00D-06.
 No special actions if energy rises.
 Inv3:  Mode=1 IEnd=    13343643.
 Iteration    1 A*A^-1 deviation from unit magnitude is 4.00D-15 for   2109.
 Iteration    1 A*A^-1 deviation from orthogonality  is 2.28D-15 for   2109   1113.
 Iteration    1 A^-1*A deviation from unit magnitude is 4.22D-15 for   2109.
 Iteration    1 A^-1*A deviation from orthogonality  is 7.63D-15 for   1520   1496.
 Error on total polarization charges =  0.00940
 SCF Done:  E(RwB97XD) =  -743.907568537     A.U. after   15 cycles
            NFock= 15  Conv=0.67D-08     -V/T= 2.0039

 **********************************************************************

            Population analysis using the SCF Density.

 **********************************************************************

 Alpha  occ. eigenvalues --  -24.76362 -24.76152 -14.52036 -10.34129 -10.32915
 Alpha  occ. eigenvalues --  -10.32870 -10.30930 -10.30748 -10.30471 -10.30202
 Alpha  occ. eigenvalues --  -10.29973 -10.29522 -10.29446 -10.29087 -10.27101
 Alpha  occ. eigenvalues --   -6.91748  -1.27976  -1.24846  -1.09472  -0.98970
 Alpha  occ. eigenvalues --   -0.93504  -0.89118  -0.85579  -0.83897  -0.83007
 Alpha  occ. eigenvalues --   -0.78072  -0.73329  -0.71967  -0.68674  -0.65663
 Alpha  occ. eigenvalues --   -0.61661  -0.61315  -0.60372  -0.59186  -0.58753
 Alpha  occ. eigenvalues --   -0.57604  -0.55590  -0.53780  -0.53704  -0.51950
 Alpha  occ. eigenvalues --   -0.51389  -0.50733  -0.49909  -0.49595  -0.49247
 Alpha  occ. eigenvalues --   -0.48228  -0.47789  -0.46999  -0.45521  -0.45370
 Alpha  occ. eigenvalues --   -0.43175  -0.42546  -0.42397  -0.37786  -0.37639
 Alpha  occ. eigenvalues --   -0.33046  -0.29864
 Alpha virt. eigenvalues --    0.00747   0.03543   0.03652   0.04601   0.05064
 Alpha virt. eigenvalues --    0.05819   0.06287   0.06651   0.07377   0.07555
 Alpha virt. eigenvalues --    0.08206   0.08795   0.08877   0.09618   0.10298
 Alpha virt. eigenvalues --    0.11015   0.11685   0.12026   0.12705   0.13304
 Alpha virt. eigenvalues --    0.13771   0.13929   0.14690   0.15327   0.15716
 Alpha virt. eigenvalues --    0.16049   0.16695   0.17071   0.17366   0.17599
 Alpha virt. eigenvalues --    0.17928   0.18101   0.18113   0.18613   0.18736
 Alpha virt. eigenvalues --    0.19277   0.19714   0.20028   0.20254   0.20614
 Alpha virt. eigenvalues --    0.20945   0.21475   0.21908   0.22408   0.22611
 Alpha virt. eigenvalues --    0.23212   0.23378   0.23629   0.24182   0.24258
 Alpha virt. eigenvalues --    0.24850   0.25333   0.26155   0.26837   0.26967
 Alpha virt. eigenvalues --    0.27366   0.27781   0.27870   0.28291   0.29305
 Alpha virt. eigenvalues --    0.29625   0.29772   0.30164   0.31443   0.31590
 Alpha virt. eigenvalues --    0.31800   0.31940   0.32118   0.32913   0.33532
 Alpha virt. eigenvalues --    0.33747   0.34728   0.34905   0.34979   0.36275
 Alpha virt. eigenvalues --    0.36412   0.36878   0.37113   0.37895   0.38136
 Alpha virt. eigenvalues --    0.39042   0.39474   0.40382   0.41074   0.41578
 Alpha virt. eigenvalues --    0.42687   0.43090   0.43765   0.44460   0.45001
 Alpha virt. eigenvalues --    0.45443   0.46374   0.47473   0.48736   0.49054
 Alpha virt. eigenvalues --    0.49558   0.50141   0.51366   0.52368   0.53106
 Alpha virt. eigenvalues --    0.54890   0.56204   0.56620   0.57441   0.58172
 Alpha virt. eigenvalues --    0.59937   0.60534   0.61464   0.62349   0.63139
 Alpha virt. eigenvalues --    0.63367   0.64397   0.64962   0.65596   0.66065
 Alpha virt. eigenvalues --    0.66649   0.67028   0.67528   0.68193   0.68429
 Alpha virt. eigenvalues --    0.69163   0.70230   0.70806   0.71725   0.71945
 Alpha virt. eigenvalues --    0.72791   0.73367   0.74288   0.74898   0.75622
 Alpha virt. eigenvalues --    0.77006   0.77298   0.78745   0.79035   0.79786
 Alpha virt. eigenvalues --    0.81055   0.82280   0.82863   0.84000   0.84476
 Alpha virt. eigenvalues --    0.84988   0.85674   0.86633   0.87449   0.88076
 Alpha virt. eigenvalues --    0.88985   0.89724   0.92207   0.93527   0.93946
 Alpha virt. eigenvalues --    0.94448   0.94767   0.96133   0.96966   0.98542
 Alpha virt. eigenvalues --    1.00002   1.00320   1.01588   1.02511   1.03145
 Alpha virt. eigenvalues --    1.03990   1.04947   1.05487   1.06803   1.09051
 Alpha virt. eigenvalues --    1.09996   1.11757   1.12682   1.14293   1.16499
 Alpha virt. eigenvalues --    1.17039   1.17674   1.19067   1.19517   1.20401
 Alpha virt. eigenvalues --    1.22420   1.22707   1.24144   1.24719   1.27677
 Alpha virt. eigenvalues --    1.30850   1.36874   1.39247   1.40359   1.41786
 Alpha virt. eigenvalues --    1.45239   1.46199   1.47412   1.49107   1.50430
 Alpha virt. eigenvalues --    1.51788   1.53307   1.54178   1.55493   1.56122
 Alpha virt. eigenvalues --    1.57764   1.58121   1.59535   1.59755   1.61664
 Alpha virt. eigenvalues --    1.62446   1.63270   1.63471   1.64336   1.64719
 Alpha virt. eigenvalues --    1.66437   1.67577   1.67941   1.68752   1.69592
 Alpha virt. eigenvalues --    1.71178   1.72023   1.72954   1.73777   1.76053
 Alpha virt. eigenvalues --    1.77380   1.78066   1.78841   1.81526   1.82031
 Alpha virt. eigenvalues --    1.83024   1.83265   1.83454   1.84494   1.85291
 Alpha virt. eigenvalues --    1.88478   1.90901   1.93493   1.94100   1.94884
 Alpha virt. eigenvalues --    1.95703   1.97229   1.99137   1.99262   2.00122
 Alpha virt. eigenvalues --    2.01490   2.02230   2.03337   2.03513   2.04565
 Alpha virt. eigenvalues --    2.07232   2.07499   2.08954   2.10613   2.11657
 Alpha virt. eigenvalues --    2.13105   2.14771   2.16722   2.18925   2.19535
 Alpha virt. eigenvalues --    2.22021   2.23438   2.25281   2.26898   2.28598
 Alpha virt. eigenvalues --    2.29558   2.31025   2.31733   2.38029   2.40275
 Alpha virt. eigenvalues --    2.40733   2.43577   2.47811   2.49932   2.51610
 Alpha virt. eigenvalues --    2.53002   2.55375   2.55850   2.57136   2.57735
 Alpha virt. eigenvalues --    2.59019   2.60218   2.63445   2.64061   2.64446
 Alpha virt. eigenvalues --    2.67892   2.69269   2.72341   2.74172   2.75627
 Alpha virt. eigenvalues --    2.77623   2.78300   2.78643   2.80308   2.80619
 Alpha virt. eigenvalues --    2.81130   2.82339   2.82912   2.83349   2.84115
 Alpha virt. eigenvalues --    2.85582   2.86354   2.87324   2.88906   2.90153
 Alpha virt. eigenvalues --    2.93067   2.93685   2.95361   2.95973   2.98900
 Alpha virt. eigenvalues --    2.99514   3.03088   3.03909   3.04590   3.07151
 Alpha virt. eigenvalues --    3.12081   3.15175   3.18604   3.20669   3.24873
 Alpha virt. eigenvalues --    3.25690   3.33598   3.35149   3.43987   3.48592
 Alpha virt. eigenvalues --    3.49984   3.51461   3.54916   3.60719   3.62563
 Alpha virt. eigenvalues --    3.63565   3.66407   3.70242   3.72052   3.80252
 Alpha virt. eigenvalues --    3.82727   3.87213   3.87422   3.91595   3.92095
 Alpha virt. eigenvalues --    3.92588   3.94693   3.96599   3.98779   4.00750
 Alpha virt. eigenvalues --    4.03794   4.12665   4.13311   4.15733   4.16154
 Alpha virt. eigenvalues --    4.18751   4.24533   4.27709   4.33911   4.47173
 Alpha virt. eigenvalues --    4.49608   4.66322   4.72263   4.87232   4.91842
 Alpha virt. eigenvalues --    4.95741   4.99242   6.51679   6.55999   6.59654
 Alpha virt. eigenvalues --    6.63111   6.69198   6.74468  14.79443  23.66911
 Alpha virt. eigenvalues --   23.96717  24.04107  24.07434  24.09478  24.09806
 Alpha virt. eigenvalues --   24.12317  24.19284  24.26002  24.27033  24.32178
 Alpha virt. eigenvalues --   24.32612  35.70564  67.00940  67.05200
          Condensed to atoms (all electrons):
               1          2          3          4          5          6
     1  C    7.664597  -1.163086   0.438158  -0.407745  -1.349840   1.069220
     2  C   -1.163086  14.770460   4.677743  -0.961893   1.804599  -1.639730
     3  C    0.438158   4.677743  13.402333   0.281690  -0.485604  -0.462033
     4  C   -0.407745  -0.961893   0.281690   9.747155  -1.786552  -0.544097
     5  C   -1.349840   1.804599  -0.485604  -1.786552   9.077201  -0.186356
     6  C    1.069220  -1.639730  -0.462033  -0.544097  -0.186356   6.972852
     7  H    0.434669  -0.106197  -0.004211   0.033347  -0.021199  -0.014601
     8  C   -0.520464  -4.177066  -3.472009   1.319405  -0.953226   0.199086
     9  C   -0.485362  -2.852627  -6.460746  -1.351768   0.754727   0.321466
    10  H   -0.004085   0.045736   0.059722  -0.059151   0.440513  -0.061852
    11  H   -0.082677   0.038202  -0.007100  -0.004567   0.007722   0.385137
    12  C   -0.036174   0.594679   1.198058  -0.488449   0.060926  -0.420863
    13  C    0.158588  -1.824307  -2.524208   0.624375  -0.841313   0.168075
    14  H    0.004086  -0.057080  -0.084116  -0.089106   0.019127   0.042787
    15  H   -0.000509   0.010135   0.043614  -0.016261   0.001476  -0.002121
    16  H    0.009162   0.017554   0.081797  -0.002930  -0.020441   0.002292
    17  B    0.057883   0.275451   0.162851  -0.078990   0.085206   0.026028
    18  N    0.240770  -1.694995  -0.395626  -0.219426  -0.135688   0.202568
    19  C    0.152911  -0.894025  -0.057096  -0.139585  -0.032809   0.112585
    20  H    0.080294  -0.150379  -0.007328  -0.011206  -0.002245   0.029667
    21  H   -0.015122   0.076296   0.007018   0.005299  -0.001639  -0.001198
    22  H   -0.020503   0.015322  -0.005137   0.006461  -0.000900  -0.006359
    23  C    0.107532  -0.692911  -0.093970  -0.067481  -0.064619   0.124296
    24  H    0.015502   0.009269  -0.004868  -0.001471  -0.006382   0.009816
    25  H    0.015053  -0.070377  -0.015554   0.003216   0.000474   0.001158
    26  H    0.004148  -0.021303   0.010430  -0.005280   0.002613  -0.003646
    27  F    0.000031  -0.084316  -0.060318  -0.000705  -0.007581   0.003108
    28  F   -0.016527  -0.031512  -0.029643   0.017783  -0.003406  -0.001043
               7          8          9         10         11         12
     1  C    0.434669  -0.520464  -0.485362  -0.004085  -0.082677  -0.036174
     2  C   -0.106197  -4.177066  -2.852627   0.045736   0.038202   0.594679
     3  C   -0.004211  -3.472009  -6.460746   0.059722  -0.007100   1.198058
     4  C    0.033347   1.319405  -1.351768  -0.059151  -0.004567  -0.488449
     5  C   -0.021199  -0.953226   0.754727   0.440513   0.007722   0.060926
     6  C   -0.014601   0.199086   0.321466  -0.061852   0.385137  -0.420863
     7  H    0.479362   0.027976  -0.006850   0.001440  -0.008708   0.001545
     8  C    0.027976  11.028628   3.212242  -0.046326  -0.011763  -1.495481
     9  C   -0.006850   3.212242  13.239679  -0.029390  -0.004535  -0.849563
    10  H    0.001440  -0.046326  -0.029390   0.456749  -0.009251   0.039294
    11  H   -0.008708  -0.011763  -0.004535  -0.009251   0.447848  -0.000364
    12  C    0.001545  -1.495481  -0.849563   0.039294  -0.000364   7.176960
    13  C    0.012011   0.880888   0.119480  -0.015391  -0.000666   0.365927
    14  H   -0.000007   0.048969   0.501237  -0.000140   0.000416  -0.085179
    15  H   -0.000021   0.005165  -0.083892   0.000316  -0.000076   0.420133
    16  H    0.000068  -0.064173  -0.065786  -0.000175   0.000030  -0.057155
    17  B   -0.016336   0.024054  -0.070954   0.002203   0.002566   0.054431
    18  N    0.020073   0.046733  -0.040794  -0.003231  -0.000087   0.067446
    19  C   -0.019245  -0.083851  -0.032216  -0.002178   0.003757   0.016573
    20  H   -0.012719  -0.018908   0.001479  -0.000404   0.002279  -0.000580
    21  H    0.003025   0.017217  -0.000134  -0.000060  -0.000174  -0.001996
    22  H    0.000974   0.014965   0.002129   0.000082  -0.000321   0.001035
    23  C   -0.007337   0.016662   0.001754  -0.002054   0.002348  -0.002690
    24  H    0.002699   0.006528  -0.000014  -0.000040  -0.000078   0.000642
    25  H   -0.011277   0.007089   0.007623  -0.000460   0.000901  -0.001190
    26  H    0.001419   0.020925  -0.003308   0.000072  -0.000576  -0.000659
    27  F    0.000211   0.206357   0.005816  -0.000099   0.000044  -0.015922
    28  F    0.000656   0.166137   0.001342  -0.000046  -0.000006  -0.008583
              13         14         15         16         17         18
     1  C    0.158588   0.004086  -0.000509   0.009162   0.057883   0.240770
     2  C   -1.824307  -0.057080   0.010135   0.017554   0.275451  -1.694995
     3  C   -2.524208  -0.084116   0.043614   0.081797   0.162851  -0.395626
     4  C    0.624375  -0.089106  -0.016261  -0.002930  -0.078990  -0.219426
     5  C   -0.841313   0.019127   0.001476  -0.020441   0.085206  -0.135688
     6  C    0.168075   0.042787  -0.002121   0.002292   0.026028   0.202568
     7  H    0.012011  -0.000007  -0.000021   0.000068  -0.016336   0.020073
     8  C    0.880888   0.048969   0.005165  -0.064173   0.024054   0.046733
     9  C    0.119480   0.501237  -0.083892  -0.065786  -0.070954  -0.040794
    10  H   -0.015391  -0.000140   0.000316  -0.000175   0.002203  -0.003231
    11  H   -0.000666   0.000416  -0.000076   0.000030   0.002566  -0.000087
    12  C    0.365927  -0.085179   0.420133  -0.057155   0.054431   0.067446
    13  C    8.764267   0.035253  -0.052049   0.422983  -0.163140   0.035322
    14  H    0.035253   0.459394  -0.010891   0.001762  -0.000318  -0.000415
    15  H   -0.052049  -0.010891   0.468505  -0.006169  -0.003241   0.002587
    16  H    0.422983   0.001762  -0.006169   0.462900  -0.016493  -0.002544
    17  B   -0.163140  -0.000318  -0.003241  -0.016493   3.853319  -0.262203
    18  N    0.035322  -0.000415   0.002587  -0.002544  -0.262203   8.634973
    19  C   -0.003356  -0.000074   0.000965  -0.003815  -0.105890   0.524590
    20  H    0.002159   0.000002  -0.000048   0.000091   0.032969  -0.020677
    21  H   -0.005955   0.000037   0.000061  -0.000089  -0.024927  -0.064459
    22  H   -0.003680  -0.000093   0.000140  -0.000101  -0.021321  -0.021175
    23  C    0.038970   0.000673   0.000434  -0.003260  -0.060306   0.416484
    24  H    0.009448   0.000054   0.000066  -0.000061  -0.023305  -0.011262
    25  H   -0.001604   0.000018  -0.000065  -0.000092   0.027102  -0.035917
    26  H   -0.005672   0.000076   0.000103  -0.000046  -0.035373   0.007115
    27  F   -0.001375   0.000165   0.000184   0.000818   0.238832   0.056150
    28  F   -0.037713   0.000007   0.000494   0.002436   0.228820   0.075598
              19         20         21         22         23         24
     1  C    0.152911   0.080294  -0.015122  -0.020503   0.107532   0.015502
     2  C   -0.894025  -0.150379   0.076296   0.015322  -0.692911   0.009269
     3  C   -0.057096  -0.007328   0.007018  -0.005137  -0.093970  -0.004868
     4  C   -0.139585  -0.011206   0.005299   0.006461  -0.067481  -0.001471
     5  C   -0.032809  -0.002245  -0.001639  -0.000900  -0.064619  -0.006382
     6  C    0.112585   0.029667  -0.001198  -0.006359   0.124296   0.009816
     7  H   -0.019245  -0.012719   0.003025   0.000974  -0.007337   0.002699
     8  C   -0.083851  -0.018908   0.017217   0.014965   0.016662   0.006528
     9  C   -0.032216   0.001479  -0.000134   0.002129   0.001754  -0.000014
    10  H   -0.002178  -0.000404  -0.000060   0.000082  -0.002054  -0.000040
    11  H    0.003757   0.002279  -0.000174  -0.000321   0.002348  -0.000078
    12  C    0.016573  -0.000580  -0.001996   0.001035  -0.002690   0.000642
    13  C   -0.003356   0.002159  -0.005955  -0.003680   0.038970   0.009448
    14  H   -0.000074   0.000002   0.000037  -0.000093   0.000673   0.000054
    15  H    0.000965  -0.000048   0.000061   0.000140   0.000434   0.000066
    16  H   -0.003815   0.000091  -0.000089  -0.000101  -0.003260  -0.000061
    17  B   -0.105890   0.032969  -0.024927  -0.021321  -0.060306  -0.023305
    18  N    0.524590  -0.020677  -0.064459  -0.021175   0.416484  -0.011262
    19  C    5.777853   0.405923   0.377195   0.389225  -0.115237  -0.019432
    20  H    0.405923   0.561901  -0.040633  -0.036408   0.002110   0.002232
    21  H    0.377195  -0.040633   0.483749  -0.009840  -0.017995  -0.015811
    22  H    0.389225  -0.036408  -0.009840   0.456335   0.010960   0.002493
    23  C   -0.115237   0.002110  -0.017995   0.010960   5.603810   0.368433
    24  H   -0.019432   0.002232  -0.015811   0.002493   0.368433   0.475792
    25  H   -0.007580   0.006902   0.002218  -0.000741   0.411970  -0.038997
    26  H    0.023286  -0.002217   0.003224  -0.003462   0.389689  -0.011453
    27  F    0.059314   0.005731  -0.012554  -0.015587  -0.005007  -0.002212
    28  F   -0.031489  -0.000087  -0.007212   0.003068   0.039198  -0.011929
              25         26         27         28
     1  C    0.015053   0.004148   0.000031  -0.016527
     2  C   -0.070377  -0.021303  -0.084316  -0.031512
     3  C   -0.015554   0.010430  -0.060318  -0.029643
     4  C    0.003216  -0.005280  -0.000705   0.017783
     5  C    0.000474   0.002613  -0.007581  -0.003406
     6  C    0.001158  -0.003646   0.003108  -0.001043
     7  H   -0.011277   0.001419   0.000211   0.000656
     8  C    0.007089   0.020925   0.206357   0.166137
     9  C    0.007623  -0.003308   0.005816   0.001342
    10  H   -0.000460   0.000072  -0.000099  -0.000046
    11  H    0.000901  -0.000576   0.000044  -0.000006
    12  C   -0.001190  -0.000659  -0.015922  -0.008583
    13  C   -0.001604  -0.005672  -0.001375  -0.037713
    14  H    0.000018   0.000076   0.000165   0.000007
    15  H   -0.000065   0.000103   0.000184   0.000494
    16  H   -0.000092  -0.000046   0.000818   0.002436
    17  B    0.027102  -0.035373   0.238832   0.228820
    18  N   -0.035917   0.007115   0.056150   0.075598
    19  C   -0.007580   0.023286   0.059314  -0.031489
    20  H    0.006902  -0.002217   0.005731  -0.000087
    21  H    0.002218   0.003224  -0.012554  -0.007212
    22  H   -0.000741  -0.003462  -0.015587   0.003068
    23  C    0.411970   0.389689  -0.005007   0.039198
    24  H   -0.038997  -0.011453  -0.002212  -0.011929
    25  H    0.540028  -0.035674  -0.000475   0.005187
    26  H   -0.035674   0.467941   0.001723  -0.019637
    27  F   -0.000475   0.001723   8.878696  -0.021635
    28  F    0.005187  -0.019637  -0.021635   8.893587
 Mulliken charges:
               1
     1  C   -0.350510
     2  C    0.086358
     3  C   -0.193849
     4  C    0.197931
     5  C   -0.354784
     6  C   -0.326245
     7  H    0.209230
     8  C   -0.405762
     9  C    0.168965
    10  H    0.188205
    11  H    0.239698
    12  C   -0.532798
    13  C   -0.157321
    14  H    0.213355
    15  H    0.220963
    16  H    0.241439
    17  B    0.811080
    18  N   -0.421906
    19  C   -0.296299
    20  H    0.170100
    21  H    0.244459
    22  H    0.242436
    23  C   -0.402453
    24  H    0.244340
    25  H    0.191064
    26  H    0.215542
    27  F   -0.229395
    28  F   -0.213845
 Sum of Mulliken charges =  -0.00000
 Mulliken charges with hydrogens summed into heavy atoms:
               1
     1  C   -0.141279
     2  C    0.086358
     3  C   -0.193849
     4  C    0.197931
     5  C   -0.166579
     6  C   -0.086547
     8  C   -0.405762
     9  C    0.382320
    12  C   -0.311835
    13  C    0.084119
    17  B    0.811080
    18  N   -0.421906
    19  C    0.360696
    23  C    0.248493
    27  F   -0.229395
    28  F   -0.213845
 Electronic spatial extent (au):  <R**2>=           6891.9603
 Charge=             -0.0000 electrons
 Dipole moment (field-independent basis, Debye):
    X=             -5.6059    Y=             -0.8453    Z=             -0.1930  Tot=              5.6725
 Quadrupole moment (field-independent basis, Debye-Ang):
   XX=            -58.6657   YY=            -76.3576   ZZ=            -96.9077
   XY=             13.5035   XZ=             -0.5337   YZ=              0.1621
 Traceless Quadrupole moment (field-independent basis, Debye-Ang):
   XX=             18.6446   YY=              0.9527   ZZ=            -19.5973
   XY=             13.5035   XZ=             -0.5337   YZ=              0.1621
 Octapole moment (field-independent basis, Debye-Ang**2):
  XXX=            687.3907  YYY=             39.7666  ZZZ=             14.3985  XYY=            220.8931
  XXY=            -32.9411  XXZ=             14.8081  XZZ=            300.7584  YZZ=              7.0362
  YYZ=              5.3421  XYZ=             -5.0182
 Hexadecapole moment (field-independent basis, Debye-Ang**3):
 XXXX=          -5923.3935 YYYY=          -1842.6603 ZZZZ=           -355.1190 XXXY=             73.7146
 XXXZ=            -69.0267 YYYX=            -28.4663 YYYZ=            -20.3781 ZZZX=             41.3718
 ZZZY=            -13.5528 XXYY=          -1220.8994 XXZZ=          -1290.7490 YYZZ=           -414.6509
 XXYZ=             18.4564 YYXZ=              2.7287 ZZXY=             16.9928
 N-N= 1.105713121093D+03 E-N=-3.951956963692D+03  KE= 7.410362317506D+02
 Breneman (CHELPG) radii used.
 Generate Potential Derived Charges using the Breneman model, NDens= 1.
 Grid spacing= 0.300 Box extension= 2.800
 NStep X,Y,Z=   44     45     34   Total possible points=       67320
 Number of Points to Fit=   16266

 **********************************************************************

            Electrostatic Properties Using The SCF Density.

 **********************************************************************

       Atomic Center    1 is at  -5.403671 -0.790410  0.263171
       Atomic Center    2 is at  -4.054638 -0.774535  0.061254
       Atomic Center    3 is at  -3.339592  0.432607 -0.028684
       Atomic Center    4 is at  -4.002164  1.671348  0.062651
       Atomic Center    5 is at  -5.405698  1.648449  0.273259
       Atomic Center    6 is at  -6.075265  0.454513  0.376142
       Atomic Center    7 is at  -5.966233 -1.714481  0.330754
       Atomic Center    8 is at  -1.947989  0.291594 -0.212857
       Atomic Center    9 is at  -3.197417  2.830909 -0.064556
       Atomic Center   10 is at  -5.948641  2.584368  0.353709
       Atomic Center   11 is at  -7.146706  0.453028  0.539947
       Atomic Center   12 is at  -1.842817  2.707687 -0.263199
       Atomic Center   13 is at  -1.207801  1.441317 -0.332899
       Atomic Center   14 is at  -3.657377  3.811732 -0.004220
       Atomic Center   15 is at  -1.238779  3.603538 -0.360955
       Atomic Center   16 is at  -0.132641  1.398609 -0.472726
       Atomic Center   17 is at  -1.571510 -1.260962 -0.151334
       Atomic Center   18 is at  -3.183734 -1.937116 -0.137453
       Atomic Center   19 is at  -3.342784 -2.940957  0.942705
       Atomic Center   20 is at  -4.345916 -3.370355  0.909033
       Atomic Center   21 is at  -2.603278 -3.727468  0.798618
       Atomic Center   22 is at  -3.173224 -2.461581  1.903598
       Atomic Center   23 is at  -3.486943 -2.564082 -1.452116
       Atomic Center   24 is at  -2.792779 -3.385271 -1.619876
       Atomic Center   25 is at  -4.514730 -2.932018 -1.453401
       Atomic Center   26 is at  -3.360254 -1.821082 -2.237437
       Atomic Center   27 is at  -0.978968 -1.674971  1.040204
       Atomic Center   28 is at  -0.915464 -1.820103 -1.241447
   16266 points will be used for fitting atomic charges
 Fitting point charges to electrostatic potential
 Charges from ESP fit, RMS=   0.00401 RRMS=   0.19884:
 ESP charges:
               1
     1  C   -0.147962
     2  C    0.008037
     3  C    0.124285
     4  C    0.169816
     5  C   -0.245569
     6  C   -0.102594
     7  H    0.147828
     8  C   -0.351899
     9  C   -0.243424
    10  H    0.147737
    11  H    0.114340
    12  C   -0.067636
    13  C   -0.047622
    14  H    0.132925
    15  H    0.097460
    16  H    0.090452
    17  B    0.917388
    18  N   -0.019174
    19  C   -0.211186
    20  H    0.094854
    21  H    0.133469
    22  H    0.100705
    23  C   -0.152243
    24  H    0.121477
    25  H    0.082444
    26  H    0.068431
    27  F   -0.483497
    28  F   -0.478843
 Sum of ESP charges =   0.00000
 ESP charges with hydrogens summed into heavy atoms:
               1
     1  C   -0.000135
     2  C    0.008037
     3  C    0.124285
     4  C    0.169816
     5  C   -0.097832
     6  C    0.011746
     8  C   -0.351899
     9  C   -0.110499
    12  C    0.029824
    13  C    0.042830
    17  B    0.917388
    18  N   -0.019174
    19  C    0.117844
    23  C    0.120108
    27  F   -0.483497
    28  F   -0.478843
 Charge=   0.00000 Dipole=    -5.6709    -0.7280    -0.1743 Tot=     5.7201
 -----------------------------------------------------------------

              Electrostatic Properties (Atomic Units)

 -----------------------------------------------------------------
    Center     Electric         -------- Electric Field --------
               Potential          X             Y             Z
 -----------------------------------------------------------------
    1 Atom    -14.746705
    2 Atom    -14.719825
    3 Atom    -14.768330
    4 Atom    -14.757197
    5 Atom    -14.758725
    6 Atom    -14.753128
    7 Atom     -1.068430
    8 Atom    -14.801809
    9 Atom    -14.769640
   10 Atom     -1.090335
   11 Atom     -1.087473
   12 Atom    -14.772257
   13 Atom    -14.779139
   14 Atom     -1.098361
   15 Atom     -1.106383
   16 Atom     -1.118311
   17 Atom    -11.393070
   18 Atom    -18.304245
   19 Atom    -14.723091
   20 Atom     -1.077907
   21 Atom     -1.086631
   22 Atom     -1.090417
   23 Atom    -14.722903
   24 Atom     -1.087528
   25 Atom     -1.079039
   26 Atom     -1.088385
   27 Atom    -26.661180
   28 Atom    -26.658193
 -----------------------------------------------------------------
 Unable to Open any file for archive entry.
 1\1\GINC-IRENE4762\SP\RwB97XD\GenECP\C12H12B1F2N1\PENASFRA\10-Apr-2024
 \0\\# wb97xd/genecp scrf=(solvent=toluene,pcm) nosymm pop=(chelpg) scf
 cyc=300\\f_naphthalene_chelpg\\0,1\C,0,-5.403671,-0.79041,0.263171\C,0
 ,-4.054638,-0.774535,0.061254\C,0,-3.339592,0.432607,-0.028684\C,0,-4.
 002164,1.671348,0.062651\C,0,-5.405698,1.648449,0.273259\C,0,-6.075265
 ,0.454513,0.376142\H,0,-5.966233,-1.714481,0.330754\C,0,-1.947989,0.29
 1594,-0.212857\C,0,-3.197417,2.830909,-0.064556\H,0,-5.948641,2.584368
 ,0.353709\H,0,-7.146706,0.453028,0.539947\C,0,-1.842817,2.707687,-0.26
 3199\C,0,-1.207801,1.441317,-0.332899\H,0,-3.657377,3.811732,-0.00422\
 H,0,-1.238779,3.603538,-0.360955\H,0,-0.132641,1.398609,-0.472726\B,0,
 -1.57151,-1.260962,-0.151334\N,0,-3.183734,-1.937116,-0.137453\C,0,-3.
 342784,-2.940957,0.942705\H,0,-4.345916,-3.370355,0.909033\H,0,-2.6032
 78,-3.727468,0.798618\H,0,-3.173224,-2.461581,1.903598\C,0,-3.486943,-
 2.564082,-1.452116\H,0,-2.792779,-3.385271,-1.619876\H,0,-4.51473,-2.9
 32018,-1.453401\H,0,-3.360254,-1.821082,-2.237437\F,0,-0.978968,-1.674
 971,1.040204\F,0,-0.915464,-1.820103,-1.241447\\Version=AS64L-G16RevC.
 02\HF=-743.9075685\RMSD=6.652e-09\Dipole=-2.2055154,-0.332567,-0.07594
 56\Quadrupole=13.8617914,0.7083443,-14.5701357,10.0394936,-0.3967664,0
 .1205224\PG=C01 [X(C12H12B1F2N1)]\\@
 The archive entry for this job was punched.


 THE 2ND LAW OF THERMODYNAMICS HAS THE SAME
 DEGREE OF TRUTH AS THE STATEMENT THAT IF YOU THROW
 A TUMBLERFULL OF WATER INTO THE SEA, YOU CANNOT GET
 THE SAME TUMBLERFULL OF WATER OUT AGAIN.
          - J.C. MAXWELL, LETTER TO LORD RAYLEIGH, DECEMBER 6,1870
 Job cpu time:       0 days  0 hours 57 minutes  4.6 seconds.
 Elapsed time:       0 days  0 hours  0 minutes 35.7 seconds.
 File lengths (MBytes):  RWF=    177 Int=      0 D2E=      0 Chk=     13 Scr=      1
 Normal termination of Gaussian 16 at Wed Apr 10 16:49:00 2024.
