 Entering Gaussian System, Link 0=/ccc/products/gaussian-16-C.02/system/default/g16/g16
 Input=f_tetramethylbenzopiperidine_chelpg.gjf
 Output=f_tetramethylbenzopiperidine_chelpg.log
 Initial command:
 /ccc/products/gaussian-16-C.02/system/default/g16/l1.exe "/ccc/scratch/cont003/gen7343/penasfra/flp/b-n_flp/f_tetramethylbenzopiperidine/Reactant/Gau-183918.inp" -scrdir="/ccc/scratch/cont003/gen7343/penasfra/flp/b-n_flp/f_tetramethylbenzopiperidine/Reactant/"
 Entering Link 1 = /ccc/products/gaussian-16-C.02/system/default/g16/l1.exe PID=    183967.
  
 Copyright (c) 1988-2021, Gaussian, Inc.  All Rights Reserved.
  
 This is part of the Gaussian(R) 16 program.  It is based on
 the Gaussian(R) 09 system (copyright 2009, Gaussian, Inc.),
 the Gaussian(R) 03 system (copyright 2003, Gaussian, Inc.),
 the Gaussian(R) 98 system (copyright 1998, Gaussian, Inc.),
 the Gaussian(R) 94 system (copyright 1995, Gaussian, Inc.),
 the Gaussian 92(TM) system (copyright 1992, Gaussian, Inc.),
 the Gaussian 90(TM) system (copyright 1990, Gaussian, Inc.),
 the Gaussian 88(TM) system (copyright 1988, Gaussian, Inc.),
 the Gaussian 86(TM) system (copyright 1986, Carnegie Mellon
 University), and the Gaussian 82(TM) system (copyright 1983,
 Carnegie Mellon University). Gaussian is a federally registered
 trademark of Gaussian, Inc.
  
 This software contains proprietary and confidential information,
 including trade secrets, belonging to Gaussian, Inc.
  
 This software is provided under written license and may be
 used, copied, transmitted, or stored only in accord with that
 written license.
  
 The following legend is applicable only to US Government
 contracts under FAR:
  
                    RESTRICTED RIGHTS LEGEND
  
 Use, reproduction and disclosure by the US Government is
 subject to restrictions as set forth in subparagraphs (a)
 and (c) of the Commercial Computer Software - Restricted
 Rights clause in FAR 52.227-19.
  
 Gaussian, Inc.
 340 Quinnipiac St., Bldg. 40, Wallingford CT 06492
  
  
 ---------------------------------------------------------------
 Warning -- This program may not be used in any manner that
 competes with the business of Gaussian, Inc. or will provide
 assistance to any competitor of Gaussian, Inc.  The licensee
 of this program is prohibited from giving any competitor of
 Gaussian, Inc. access to this program.  By using this program,
 the user acknowledges that Gaussian, Inc. is engaged in the
 business of creating and licensing software in the field of
 computational chemistry and represents and warrants to the
 licensee that it is not a competitor of Gaussian, Inc. and that
 it will not use this program in any manner prohibited above.
 ---------------------------------------------------------------
  

 Cite this work as:
 Gaussian 16, Revision C.02,
 M. J. Frisch, G. W. Trucks, H. B. Schlegel, G. E. Scuseria, 
 M. A. Robb, J. R. Cheeseman, G. Scalmani, V. Barone, 
 G. A. Petersson, H. Nakatsuji, X. Li, M. Caricato, A. V. Marenich, 
 J. Bloino, B. G. Janesko, R. Gomperts, B. Mennucci, H. P. Hratchian, 
 J. V. Ortiz, A. F. Izmaylov, J. L. Sonnenberg, D. Williams-Young, 
 F. Ding, F. Lipparini, F. Egidi, J. Goings, B. Peng, A. Petrone, 
 T. Henderson, D. Ranasinghe, V. G. Zakrzewski, J. Gao, N. Rega, 
 G. Zheng, W. Liang, M. Hada, M. Ehara, K. Toyota, R. Fukuda, 
 J. Hasegawa, M. Ishida, T. Nakajima, Y. Honda, O. Kitao, H. Nakai, 
 T. Vreven, K. Throssell, J. A. Montgomery, Jr., J. E. Peralta, 
 F. Ogliaro, M. J. Bearpark, J. J. Heyd, E. N. Brothers, K. N. Kudin, 
 V. N. Staroverov, T. A. Keith, R. Kobayashi, J. Normand, 
 K. Raghavachari, A. P. Rendell, J. C. Burant, S. S. Iyengar, 
 J. Tomasi, M. Cossi, J. M. Millam, M. Klene, C. Adamo, R. Cammi, 
 J. W. Ochterski, R. L. Martin, K. Morokuma, O. Farkas, 
 J. B. Foresman, and D. J. Fox, Gaussian, Inc., Wallingford CT, 2019.
 
 ******************************************
 Gaussian 16:  AS64L-G16RevC.02  7-Dec-2021
                 9-Apr-2024 
 ******************************************
 %nprocshared=128
 Will use up to  128 processors via shared memory.
 %mem=30GB
 %chk=f_tetramethylbenzopiperidine_chelpg.chk
 ----------------------------------------------------------------------
 # wb97xd/genecp scrf=(solvent=toluene,pcm) nosymm pop=(chelpg) scfcyc=
 300
 ----------------------------------------------------------------------
 1/38=1,172=1/1;
 2/12=2,15=1,17=6,18=5,40=1/2;
 3/5=7,11=2,16=1,17=8,25=1,30=1,70=2201,72=13,74=-58/1,2,3;
 4//1;
 5/5=2,7=300,38=5,53=13/2;
 6/7=2,8=2,9=2,10=2,15=8,20=3,28=1/1,2;
 99/5=1,9=1/99;
 -----------------------------------
 f_tetramethylbenzopiperidine_chelpg
 -----------------------------------
 Symbolic Z-matrix:
 Charge =  0 Multiplicity = 1
 C                    -0.64016   1.03666   0.98701 
 C                     0.63826   0.96698   0.45437 
 C                     1.30856   2.11172  -0.00134 
 C                     0.66377   3.36423   0.08443 
 C                    -0.62385   3.41706   0.62293 
 C                    -1.27045   2.27077   1.0696 
 H                    -1.13901   0.13895   1.3333 
 H                     1.13301   0.00448   0.38803 
 H                    -1.12816   4.37128   0.69324 
 H                    -2.27058   2.34571   1.48294 
 B                     2.73311   1.8987   -0.57405 
 C                     0.89006   5.07043  -1.69084 
 C                     1.89108   5.42876   0.67293 
 C                     1.9905    5.99789  -2.23362 
 C                     2.94729   6.33882   0.02363 
 C                     2.4444    7.04394  -1.22689 
 H                     1.62478   6.47034  -3.15077 
 H                     2.8523    5.37885  -2.50615 
 H                     3.2883    7.06263   0.77058 
 H                     3.8087    5.71881  -0.24787 
 H                     3.24288   7.65508  -1.65774 
 H                     1.62658   7.73141  -0.98422 
 N                     1.32906   4.53843  -0.37509 
 C                     0.85134   6.29087   1.42299 
 H                     1.35553   6.88209   2.19331 
 H                     0.32585   6.98511   0.76784 
 H                     0.11084   5.66614   1.92639 
 C                    -0.4607    5.81985  -1.6725 
 H                    -0.44239   6.70879  -1.04266 
 H                    -0.71419   6.14015  -2.68754 
 H                    -1.26681   5.16996  -1.32619 
 C                     2.61108   4.57508   1.72698 
 H                     1.91857   3.94013   2.28471 
 H                     3.37103   3.94325   1.26344 
 H                     3.10903   5.23489   2.44238 
 C                     0.74501   3.90707  -2.6827 
 H                     1.67297   3.33618  -2.7521 
 H                    -0.0651    3.22847  -2.40519 
 H                     0.51938   4.3084   -3.67423 
 F                     3.23976   0.65831  -0.61572 
 F                     3.55313   2.82961  -1.04863 
 
                          Input orientation:                          
 ---------------------------------------------------------------------
 Center     Atomic      Atomic             Coordinates (Angstroms)
 Number     Number       Type             X           Y           Z
 ---------------------------------------------------------------------
      1          6           0       -0.640157    1.036665    0.987008
      2          6           0        0.638262    0.966976    0.454366
      3          6           0        1.308557    2.111717   -0.001336
      4          6           0        0.663765    3.364229    0.084429
      5          6           0       -0.623851    3.417055    0.622931
      6          6           0       -1.270451    2.270770    1.069598
      7          1           0       -1.139006    0.138952    1.333295
      8          1           0        1.133007    0.004480    0.388032
      9          1           0       -1.128160    4.371277    0.693237
     10          1           0       -2.270579    2.345708    1.482935
     11          5           0        2.733111    1.898704   -0.574045
     12          6           0        0.890064    5.070432   -1.690843
     13          6           0        1.891081    5.428764    0.672925
     14          6           0        1.990495    5.997886   -2.233622
     15          6           0        2.947287    6.338825    0.023628
     16          6           0        2.444396    7.043941   -1.226888
     17          1           0        1.624775    6.470339   -3.150773
     18          1           0        2.852301    5.378854   -2.506152
     19          1           0        3.288295    7.062631    0.770580
     20          1           0        3.808695    5.718812   -0.247874
     21          1           0        3.242881    7.655079   -1.657744
     22          1           0        1.626580    7.731414   -0.984220
     23          7           0        1.329059    4.538434   -0.375094
     24          6           0        0.851341    6.290872    1.422988
     25          1           0        1.355531    6.882094    2.193310
     26          1           0        0.325850    6.985108    0.767842
     27          1           0        0.110841    5.666144    1.926389
     28          6           0       -0.460704    5.819852   -1.672504
     29          1           0       -0.442390    6.708794   -1.042655
     30          1           0       -0.714191    6.140153   -2.687541
     31          1           0       -1.266814    5.169957   -1.326187
     32          6           0        2.611080    4.575083    1.726975
     33          1           0        1.918565    3.940130    2.284714
     34          1           0        3.371034    3.943253    1.263442
     35          1           0        3.109032    5.234889    2.442380
     36          6           0        0.745012    3.907067   -2.682703
     37          1           0        1.672968    3.336180   -2.752103
     38          1           0       -0.065095    3.228474   -2.405191
     39          1           0        0.519382    4.308400   -3.674226
     40          9           0        3.239758    0.658307   -0.615721
     41          9           0        3.553127    2.829607   -1.048628
 ---------------------------------------------------------------------
                    Distance matrix (angstroms):
                    1          2          3          4          5
     1  C    0.000000
     2  C    1.386694   0.000000
     3  C    2.435169   1.402637   0.000000
     4  C    2.816454   2.425763   1.411346   0.000000
     5  C    2.408127   2.761201   2.414087   1.396685   0.000000
     6  C    1.388203   2.391981   2.797048   2.430515   1.389810
     7  H    1.083814   2.148679   3.415202   3.900264   3.393517
     8  H    2.137356   1.084238   2.150087   3.405918   3.845438
     9  H    3.382911   3.842730   3.394942   2.143779   1.081578
    10  H    2.148910   3.379380   3.881756   3.406403   2.144552
    11  B    3.815617   2.512795   1.550072   2.619837   3.873930
    12  C    5.077769   4.637206   3.432720   2.472636   3.221668
    13  C    5.079010   4.639491   3.434642   2.472840   3.220925
    14  C    6.473523   5.862070   4.533260   3.750963   4.653535
    15  C    6.473852   5.862925   4.533707   3.750519   4.652841
    16  C    7.106558   6.558829   5.207585   4.293073   5.098066
    17  H    7.195552   6.652611   5.386700   4.586719   5.349739
    18  H    6.576780   5.755980   4.396753   3.944555   5.071829
    19  H    7.196655   6.654298   5.387649   4.586626   5.349478
    20  H    6.575691   5.755409   4.395749   3.942724   5.069897
    21  H    8.116409   7.481696   6.100341   5.300792   6.173649
    22  H    7.337813   6.985981   5.713860   4.597970   5.124555
    23  N    4.242113   3.731021   2.455417   1.425670   2.463210
    24  C    5.479173   5.415487   4.438815   3.223688   3.327928
    25  H    6.293407   6.207014   5.251207   4.159482   4.288419
    26  H    6.030355   6.034383   5.030635   3.700271   3.695123
    27  H    4.783149   4.952495   4.217179   2.999559   2.701329
    28  C    5.475773   5.411258   4.435465   3.222007   3.327022
    29  H    6.027578   6.031364   5.028248   3.698650   3.693596
    30  H    6.289148   6.201812   5.247428   4.157924   4.287499
    31  H    4.777831   4.946184   4.211959   2.996269   2.699098
    32  C    4.861944   4.304646   3.278993   2.820667   3.608978
    33  H    4.081814   3.718736   2.990189   2.597583   3.082046
    34  H    4.961282   4.120785   3.034468   3.009094   4.079981
    35  H    5.813743   5.317141   4.355188   3.877968   4.533137
    36  C    4.860523   4.300783   3.275758   2.821045   3.611248
    37  H    4.961781   4.118882   3.032956   3.010846   4.083231
    38  H    4.079429   3.712971   2.985395   2.597667   3.085011
    39  H    5.811702   5.312675   4.351820   3.878117   4.535089
    40  F    4.214930   2.829866   2.493874   3.801048   4.906366
    41  F    4.994205   3.771581   2.578814   3.149294   4.537218
                    6          7          8          9         10
     6  C    0.000000
     7  H    2.152083   0.000000
     8  H    3.373012   2.464477   0.000000
     9  H    2.138697   4.280463   4.926961   0.000000
    10  H    1.084767   2.484476   4.273706   2.455947   0.000000
    11  B    4.343789   4.661326   2.659701   4.756998   5.428434
    12  C    4.486197   6.130418   5.481297   3.200919   5.242771
    13  C    4.486152   6.131853   5.484405   3.199142   5.242210
    14  C    5.952850   7.539481   6.597672   4.575846   6.731118
    15  C    5.952515   7.539990   6.599116   4.574810   6.730578
    16  C    6.469706   8.189883   7.340417   4.857280   7.186621
    17  H    6.620441   8.236007   7.387307   5.173116   7.325136
    18  H    6.280387   7.624202   6.341622   5.205321   7.166358
    19  H    6.620688   8.237413   7.389797   5.172470   7.325155
    20  H    6.278730   7.623298   6.341709   5.203276   7.164573
    21  H    7.536534   9.199968   8.195635   5.951174   8.273544
    22  H    6.513800   8.406237   7.863345   4.657572   7.090877
    23  N    3.739905   5.325916   4.601906   2.684622   4.606269
    24  C    4.559398   6.466502   6.377240   2.852333   5.031332
    25  H    5.424281   7.241015   7.114079   3.837075   5.850821
    26  H    4.986403   7.023916   7.037395   2.991960   5.364404
    27  H    3.764389   5.697695   5.955317   2.175424   4.110123
    28  C    4.557499   6.462782   6.372148   2.853173   5.030121
    29  H    4.984311   7.020914   7.033958   2.991252   5.362593
    30  H    5.421959   7.236159   7.107586   3.837962   5.849190
    31  H    3.760995   5.692117   5.948096   2.176049   4.107931
    32  C    4.561610   5.822146   4.986770   3.884851   5.372175
    33  H    3.799091   4.970200   4.438901   3.464278   4.553456
    34  H    4.937424   5.900682   4.614005   4.555336   5.867548
    35  H    5.463552   6.726401   5.956694   4.664668   6.181271
    36  C    4.562819   5.820348   4.980978   3.888603   5.374400
    37  H    4.940062   5.900842   4.610014   4.559398   5.870958
    38  H    3.800558   4.967364   4.430765   3.469346   4.556420
    39  H    5.464367   6.723824   5.949975   4.668306   6.183232
    40  F    5.077630   4.820992   2.423512   5.880325   6.133147
    41  F    5.297743   5.910101   3.987771   5.227360   6.368557
                   11         12         13         14         15
    11  B    0.000000
    12  C    3.834569   0.000000
    13  C    3.837352   2.591879   0.000000
    14  C    4.484302   1.538092   2.963410   0.000000
    15  C    4.485282   2.963174   1.537976   2.475251   0.000000
    16  C    5.194519   2.554592   2.554260   1.521108   1.521144
    17  H    5.363561   2.151961   3.971960   1.094591   3.441389
    18  H    3.982297   2.147144   3.321591   1.095529   2.707463
    19  H    5.364922   3.972275   2.152037   3.441395   1.094586
    20  H    3.982021   3.319784   2.146915   2.706830   1.095515
    21  H    5.879636   3.495317   3.495119   2.155550   2.155670
    22  H    5.950896   2.850017   2.849261   2.167616   2.167794
    23  N    2.996518   1.485575   1.485564   2.453900   2.453375
    24  C    5.178836   3.344685   1.544954   3.841134   2.520615
    25  H    5.864312   4.311081   2.170381   4.558808   2.745241
    26  H    5.785073   3.166931   2.209336   3.571335   2.800619
    27  H    5.227052   3.747857   2.190154   4.576991   3.481153
    28  C    5.175178   1.544843   3.344380   2.520898   3.841953
    29  H    5.782765   2.209030   3.166509   2.800486   3.572639
    30  H    5.860089   2.170563   4.311177   2.746199   4.560299
    31  H    5.221706   2.189749   3.746429   3.481231   4.576778
    32  C    3.531655   3.858594   1.535640   4.253919   2.474917
    33  H    3.606024   4.259161   2.194231   4.965369   3.453189
    34  H    2.821965   4.019147   2.178466   4.284491   2.730470
    35  H    4.513343   4.694081   2.156841   4.868088   2.663681
    36  C    3.525975   1.535658   3.858662   2.474758   4.252962
    37  H    2.816767   2.178725   4.019614   2.730261   4.283042
    38  H    3.598797   2.194409   4.259425   3.453191   4.964664
    39  H    4.507588   2.156828   4.694092   2.663433   4.867389
    40  F    1.340527   5.113100   5.122187   5.717461   5.723862
    41  F    1.328245   3.539158   3.532953   3.726127   3.719057
                   16         17         18         19         20
    16  C    0.000000
    17  H    2.168440   0.000000
    18  H    2.139023   1.764567   0.000000
    19  H    2.168500   4.300595   3.709740   0.000000
    20  H    2.139100   3.709599   2.475900   1.764629   0.000000
    21  H    1.093940   2.500202   2.460396   2.499963   2.461099
    22  H    1.095596   2.506844   3.058301   2.507567   3.058496
    23  N    2.871776   3.394716   2.750996   3.394517   2.749195
    24  C    3.182260   4.642165   4.502639   2.638180   3.444557
    25  H    3.592990   5.366680   5.156064   2.406726   3.651112
    26  H    2.910437   4.160257   4.436445   2.963460   3.842576
    27  H    4.157759   5.358759   5.219728   3.658180   4.290025
    28  C    3.183799   2.637733   3.444626   4.644153   4.501949
    29  H    2.912009   2.962127   3.842597   4.163056   4.436605
    30  H    3.595415   2.407149   3.651348   5.369307   5.156161
    31  H    4.158696   3.658059   4.289879   5.359819   5.217738
    32  C    3.853356   5.325150   4.315507   2.749765   2.577290
    33  H    4.716088   6.002732   5.088633   3.730787   3.626335
    34  H    4.083463   5.377814   4.066924   3.159158   2.372390
    35  H    4.144628   5.917154   4.957278   2.483484   2.821556
    36  C    3.853217   2.750170   2.576431   5.324569   4.312420
    37  H    4.082753   3.159781   2.371463   5.376338   4.063180
    38  H    4.716326   3.731118   3.625676   6.002625   5.085474
    39  H    4.144675   2.483924   2.820067   5.916838   4.954668
    40  F    6.463934   6.543269   5.099747   6.552828   5.105655
    41  F    4.361384   4.625201   3.018972   4.614991   3.008991
                   21         22         23         24         25
    21  H    0.000000
    22  H    1.752681   0.000000
    23  N    3.875743   3.264150   0.000000
    24  C    4.131759   2.910465   2.555847   0.000000
    25  H    4.357776   3.300229   3.477088   1.094142   0.000000
    26  H    3.852454   2.306207   2.880789   1.089642   1.761481
    27  H    5.158638   3.877428   2.837712   1.091805   1.760407
    28  C    4.133379   2.912827   2.555104   3.394907   4.401316
    29  H    3.854220   2.308637   2.879953   2.815634   3.705944
    30  H    4.360493   3.303426   3.476749   4.401143   5.353217
    31  H    5.159759   3.879398   2.835834   3.647053   4.711153
    32  C    4.619726   4.275774   2.462441   2.476494   2.667615
    33  H    5.576525   5.014481   2.789277   2.721677   2.996751
    34  H    4.725188   4.737644   2.684903   3.447553   3.682892
    35  H    4.763009   4.491313   3.404631   2.692848   2.418695
    36  C    4.619252   4.276405   2.462680   4.748740   5.744478
    37  H    4.723890   4.737683   2.685863   5.180411   6.093553
    38  H    5.576398   5.015714   2.789436   4.987293   6.042626
    39  H    4.762763   4.492109   3.404815   5.479232   6.461503
    40  F    7.073941   7.264088   4.331750   6.448772   7.083537
    41  F    4.873649   5.267205   2.884479   5.038739   5.635800
                   26         27         28         29         30
    26  H    0.000000
    27  H    1.768651   0.000000
    28  C    2.816341   3.647235   0.000000
    29  H    1.986062   3.195060   1.089616   0.000000
    30  H    3.706117   4.711020   1.094143   1.761499   0.000000
    31  H    3.196296   3.566985   1.091839   1.768639   1.760670
    32  C    3.456940   2.735210   4.747817   4.641902   5.744112
    33  H    3.756266   2.524953   4.985364   4.930618   6.041095
    34  H    4.332626   3.746560   5.179152   5.244855   6.093086
    35  H    3.689640   3.072682   5.478820   5.189457   6.461627
    36  C    4.642876   4.973958   2.476489   3.456784   2.667578
    37  H    5.245895   5.455022   3.447712   4.332606   3.683064
    38  H    4.932877   4.973507   2.721870   3.756525   2.996485
    39  H    5.189816   5.777306   2.692944   3.689453   2.418795
    40  F    7.101656   6.428909   6.438304   7.095694   7.069426
    41  F    5.566244   5.361530   5.043969   5.568867   5.644090
                   31         32         33         34         35
    31  H    0.000000
    32  C    4.971291   0.000000
    33  H    4.969680   1.092618   0.000000
    34  H    5.451662   1.091605   1.775577   0.000000
    35  H    5.775322   1.093208   1.765919   1.768294   0.000000
    36  C    2.735411   4.834637   5.104268   4.740186   5.798118
    37  H    3.746771   4.740999   5.078838   4.401882   5.714020
    38  H    2.525418   5.103926   5.141651   5.077082   6.131862
    39  H    3.073445   5.798215   6.132072   5.713652   6.706530
    40  F    6.416303   4.607016   4.574761   3.786734   5.505831
    41  F    5.365269   3.411468   3.875077   2.572748   4.262598
                   36         37         38         39         40
    36  C    0.000000
    37  H    1.091710   0.000000
    38  H    1.092600   1.775616   0.000000
    39  H    1.093204   1.768130   1.765872   0.000000
    40  F    4.588095   3.766957   4.553023   5.484348   0.000000
    41  F    3.422956   2.587169   3.884699   4.276003   2.236102
                   41
    41  F    0.000000
 Symmetry turned off by external request.
 Stoichiometry    C15H22BF2N
 Framework group  C1[X(C15H22BF2N)]
 Deg. of freedom   117
 Full point group                 C1      NOp   1
 Rotational constants (GHZ):           0.5310241           0.3420269           0.2982689
 General basis read from cards:  (5D, 7F)
 ======================================================================================================
                                       Pseudopotential Parameters
 ======================================================================================================
  Center     Atomic      Valence      Angular      Power
  Number     Number     Electrons     Momentum     of R      Exponent        Coefficient   SO-Coeffient
 ======================================================================================================
    1          6
                                   No pseudopotential on this center.
    2          6
                                   No pseudopotential on this center.
    3          6
                                   No pseudopotential on this center.
    4          6
                                   No pseudopotential on this center.
    5          6
                                   No pseudopotential on this center.
    6          6
                                   No pseudopotential on this center.
    7          1
                                   No pseudopotential on this center.
    8          1
                                   No pseudopotential on this center.
    9          1
                                   No pseudopotential on this center.
   10          1
                                   No pseudopotential on this center.
   11          5
                                   No pseudopotential on this center.
   12          6
                                   No pseudopotential on this center.
   13          6
                                   No pseudopotential on this center.
   14          6
                                   No pseudopotential on this center.
   15          6
                                   No pseudopotential on this center.
   16          6
                                   No pseudopotential on this center.
   17          1
                                   No pseudopotential on this center.
   18          1
                                   No pseudopotential on this center.
   19          1
                                   No pseudopotential on this center.
   20          1
                                   No pseudopotential on this center.
   21          1
                                   No pseudopotential on this center.
   22          1
                                   No pseudopotential on this center.
   23          7
                                   No pseudopotential on this center.
   24          6
                                   No pseudopotential on this center.
   25          1
                                   No pseudopotential on this center.
   26          1
                                   No pseudopotential on this center.
   27          1
                                   No pseudopotential on this center.
   28          6
                                   No pseudopotential on this center.
   29          1
                                   No pseudopotential on this center.
   30          1
                                   No pseudopotential on this center.
   31          1
                                   No pseudopotential on this center.
   32          6
                                   No pseudopotential on this center.
   33          1
                                   No pseudopotential on this center.
   34          1
                                   No pseudopotential on this center.
   35          1
                                   No pseudopotential on this center.
   36          6
                                   No pseudopotential on this center.
   37          1
                                   No pseudopotential on this center.
   38          1
                                   No pseudopotential on this center.
   39          1
                                   No pseudopotential on this center.
   40          9
                                   No pseudopotential on this center.
   41          9
                                   No pseudopotential on this center.
 ======================================================================================================
   572 basis functions,   882 primitive gaussians,   591 cartesian basis functions
    71 alpha electrons       71 beta electrons
       nuclear repulsion energy      1593.1190921309 Hartrees.
 NAtoms=   41 NActive=   41 NUniq=   41 SFac= 1.00D+00 NAtFMM=   60 NAOKFM=F Big=F
 Integral buffers will be    131072 words long.
 Raffenetti 2 integral format.
 Two-electron integral symmetry is turned off.
 Nuclear repulsion after empirical dispersion term =     1593.0735118151 Hartrees.
 ------------------------------------------------------------------------------
 Polarizable Continuum Model (PCM)
 =================================
 Model                : PCM.
 Atomic radii         : UFF (Universal Force Field).
 Polarization charges : Total charges.
 Charge compensation  : None.
 Solution method      : On-the-fly selection.
 Cavity type          : Scaled VdW (van der Waals Surface) (Alpha=1.100).
 Cavity algorithm     : GePol (No added spheres)
                        Default sphere list used, NSphG=   41.
                        Lebedev-Laikov grids with approx.  5.0 points / Ang**2.
                        Smoothing algorithm: York/Karplus (Gamma=1.0000).
                        Polarization charges: spherical gaussians, with
                                              point-specific exponents (IZeta= 3).
                        Self-potential: point-specific (ISelfS= 7).
                        Self-field    : sphere-specific E.n sum rule (ISelfD= 2).
 Solvent              : Toluene, Eps=   2.374100 Eps(inf)=   2.238315
 ------------------------------------------------------------------------------
 One-electron integrals computed using PRISM.
   1 Symmetry operations used in ECPInt.
 ECPInt:  NShTT=   25200 NPrTT=   81009 LenC2=   24096 LenP2D=   55952.
 LDataN:  DoStor=T MaxTD1= 4 Len=   56
 Number of processors reduced to  77 by ecpmxn.
 NBasis=   572 RedAO= T EigKep=  2.63D-06  NBF=   572
 NBsUse=   569 1.00D-06 EigRej=  9.52D-07 NBFU=   569
 ExpMin= 3.15D-02 ExpMax= 1.14D+04 ExpMxC= 1.72D+03 IAcc=3 IRadAn=         5 AccDes= 0.00D+00
 Harris functional with IExCor= 4639 and IRadAn=       5 diagonalized for initial guess.
 HarFok:  IExCor= 4639 AccDes= 0.00D+00 IRadAn=         5 IDoV= 1 UseB2=F ITyADJ=14
 ICtDFT=  3500011 ScaDFX=  1.000000  1.000000  1.000000  1.000000
 FoFCou: FMM=F IPFlag=           0 FMFlag=      100000 FMFlg1=           0
         NFxFlg=           0 DoJE=T BraDBF=F KetDBF=T FulRan=T
         wScrn=  0.000000 ICntrl=       500 IOpCl=  0 I1Cent=   200000004 NGrid=           0
         NMat0=    1 NMatS0=      1 NMatT0=    0 NMatD0=    1 NMtDS0=    0 NMtDT0=    0
 Symmetry not used in FoFCou.
 Requested convergence on RMS density matrix=1.00D-08 within 300 cycles.
 Requested convergence on MAX density matrix=1.00D-06.
 Requested convergence on             energy=1.00D-06.
 No special actions if energy rises.
 Inv3:  Mode=1 IEnd=    18332352.
 Iteration    1 A*A^-1 deviation from unit magnitude is 4.00D-15 for   2472.
 Iteration    1 A*A^-1 deviation from orthogonality  is 2.04D-15 for   1966   1838.
 Iteration    1 A^-1*A deviation from unit magnitude is 4.00D-15 for   2472.
 Iteration    1 A^-1*A deviation from orthogonality  is 2.47D-15 for   2424   2362.
 Error on total polarization charges =  0.01048
 SCF Done:  E(RwB97XD) =  -864.249841044     A.U. after   14 cycles
            NFock= 14  Conv=0.63D-08     -V/T= 2.0042

 **********************************************************************

            Population analysis using the SCF Density.

 **********************************************************************

 Alpha  occ. eigenvalues --  -24.81493 -24.81467 -14.41598 -10.33225 -10.32423
 Alpha  occ. eigenvalues --  -10.32416 -10.30266 -10.30123 -10.29531 -10.29219
 Alpha  occ. eigenvalues --  -10.28556 -10.27270 -10.27036 -10.27028 -10.26566
 Alpha  occ. eigenvalues --  -10.26545 -10.26498 -10.26494  -6.95481  -1.33826
 Alpha  occ. eigenvalues --   -1.30552  -1.03778  -0.96429  -0.90977  -0.90346
 Alpha  occ. eigenvalues --   -0.86052  -0.84647  -0.82242  -0.78768  -0.77790
 Alpha  occ. eigenvalues --   -0.76921  -0.72232  -0.71441  -0.68759  -0.67116
 Alpha  occ. eigenvalues --   -0.66660  -0.63669  -0.61905  -0.59756  -0.58435
 Alpha  occ. eigenvalues --   -0.58141  -0.56332  -0.55948  -0.55933  -0.54894
 Alpha  occ. eigenvalues --   -0.53185  -0.52962  -0.51828  -0.51018  -0.50383
 Alpha  occ. eigenvalues --   -0.50367  -0.50019  -0.49267  -0.48730  -0.47605
 Alpha  occ. eigenvalues --   -0.47214  -0.46307  -0.45895  -0.44581  -0.44562
 Alpha  occ. eigenvalues --   -0.44114  -0.43803  -0.42506  -0.42301  -0.40459
 Alpha  occ. eigenvalues --   -0.39835  -0.39151  -0.37638  -0.34619  -0.33372
 Alpha  occ. eigenvalues --   -0.28520
 Alpha virt. eigenvalues --    0.00991   0.03880   0.04403   0.04630   0.05146
 Alpha virt. eigenvalues --    0.05439   0.06074   0.06426   0.06781   0.07051
 Alpha virt. eigenvalues --    0.07501   0.08200   0.08429   0.08637   0.09670
 Alpha virt. eigenvalues --    0.09864   0.09880   0.10158   0.10769   0.11236
 Alpha virt. eigenvalues --    0.11621   0.12420   0.12688   0.13098   0.13331
 Alpha virt. eigenvalues --    0.13551   0.14149   0.14372   0.14512   0.14891
 Alpha virt. eigenvalues --    0.15468   0.15599   0.16024   0.16466   0.16713
 Alpha virt. eigenvalues --    0.17183   0.17568   0.18105   0.18263   0.18329
 Alpha virt. eigenvalues --    0.18670   0.18702   0.19333   0.19423   0.19525
 Alpha virt. eigenvalues --    0.19749   0.19930   0.20367   0.20517   0.20542
 Alpha virt. eigenvalues --    0.20851   0.21159   0.21560   0.21902   0.22251
 Alpha virt. eigenvalues --    0.22400   0.22565   0.23144   0.23188   0.24059
 Alpha virt. eigenvalues --    0.24357   0.24561   0.24808   0.25087   0.25282
 Alpha virt. eigenvalues --    0.25503   0.25545   0.25640   0.25926   0.26114
 Alpha virt. eigenvalues --    0.26163   0.26430   0.26941   0.26998   0.27783
 Alpha virt. eigenvalues --    0.27968   0.28516   0.29273   0.29559   0.29627
 Alpha virt. eigenvalues --    0.30046   0.30296   0.30683   0.31105   0.31353
 Alpha virt. eigenvalues --    0.31502   0.31643   0.32005   0.32156   0.32386
 Alpha virt. eigenvalues --    0.32650   0.34061   0.34293   0.34353   0.34687
 Alpha virt. eigenvalues --    0.34780   0.35180   0.36649   0.36686   0.36952
 Alpha virt. eigenvalues --    0.36976   0.37779   0.38213   0.38437   0.38467
 Alpha virt. eigenvalues --    0.38893   0.39221   0.40444   0.40834   0.41096
 Alpha virt. eigenvalues --    0.41215   0.42215   0.42396   0.42733   0.42845
 Alpha virt. eigenvalues --    0.43221   0.43930   0.44064   0.44378   0.44569
 Alpha virt. eigenvalues --    0.44664   0.45076   0.45920   0.46229   0.47141
 Alpha virt. eigenvalues --    0.48141   0.48513   0.48629   0.49320   0.49935
 Alpha virt. eigenvalues --    0.50281   0.52116   0.52790   0.54141   0.54237
 Alpha virt. eigenvalues --    0.55739   0.56463   0.57029   0.57887   0.58372
 Alpha virt. eigenvalues --    0.58940   0.59530   0.61089   0.62009   0.62819
 Alpha virt. eigenvalues --    0.63515   0.63651   0.64613   0.64703   0.66072
 Alpha virt. eigenvalues --    0.66327   0.66465   0.66871   0.67252   0.68044
 Alpha virt. eigenvalues --    0.68592   0.69297   0.70148   0.70642   0.71199
 Alpha virt. eigenvalues --    0.71215   0.72011   0.72522   0.73015   0.73794
 Alpha virt. eigenvalues --    0.74211   0.74748   0.75869   0.76035   0.76310
 Alpha virt. eigenvalues --    0.77269   0.77275   0.78058   0.78240   0.78692
 Alpha virt. eigenvalues --    0.79557   0.79828   0.80775   0.81066   0.81591
 Alpha virt. eigenvalues --    0.82607   0.83498   0.83781   0.84568   0.85420
 Alpha virt. eigenvalues --    0.85688   0.86146   0.86888   0.87117   0.87418
 Alpha virt. eigenvalues --    0.87903   0.88781   0.89132   0.89365   0.89724
 Alpha virt. eigenvalues --    0.90337   0.91368   0.92283   0.92390   0.92972
 Alpha virt. eigenvalues --    0.93498   0.93942   0.94747   0.96027   0.96760
 Alpha virt. eigenvalues --    0.97899   0.98354   0.98898   1.00544   1.01092
 Alpha virt. eigenvalues --    1.01695   1.02329   1.04420   1.05377   1.05958
 Alpha virt. eigenvalues --    1.06129   1.08885   1.09467   1.10351   1.10728
 Alpha virt. eigenvalues --    1.13974   1.15201   1.16609   1.17059   1.17257
 Alpha virt. eigenvalues --    1.17496   1.19294   1.20940   1.21511   1.22172
 Alpha virt. eigenvalues --    1.24290   1.24504   1.28247   1.30125   1.30303
 Alpha virt. eigenvalues --    1.31696   1.32546   1.36559   1.38078   1.38213
 Alpha virt. eigenvalues --    1.38917   1.41238   1.44528   1.45080   1.45484
 Alpha virt. eigenvalues --    1.46001   1.48156   1.48747   1.50271   1.50293
 Alpha virt. eigenvalues --    1.52247   1.52614   1.54293   1.54555   1.57482
 Alpha virt. eigenvalues --    1.57855   1.59475   1.60017   1.60599   1.60729
 Alpha virt. eigenvalues --    1.61140   1.61696   1.63226   1.63275   1.64326
 Alpha virt. eigenvalues --    1.64715   1.65605   1.66195   1.66723   1.67673
 Alpha virt. eigenvalues --    1.67952   1.68860   1.69477   1.71054   1.71746
 Alpha virt. eigenvalues --    1.71839   1.71964   1.73793   1.74306   1.74489
 Alpha virt. eigenvalues --    1.75184   1.76128   1.76443   1.76821   1.78198
 Alpha virt. eigenvalues --    1.78756   1.80310   1.80623   1.80732   1.81931
 Alpha virt. eigenvalues --    1.82480   1.83102   1.83389   1.83735   1.85237
 Alpha virt. eigenvalues --    1.86029   1.87031   1.87300   1.88069   1.89879
 Alpha virt. eigenvalues --    1.90888   1.90940   1.91064   1.92833   1.93864
 Alpha virt. eigenvalues --    1.95634   1.96127   1.97205   1.98125   1.98455
 Alpha virt. eigenvalues --    1.99101   1.99319   2.01228   2.01565   2.01866
 Alpha virt. eigenvalues --    2.02616   2.03804   2.04074   2.05167   2.05580
 Alpha virt. eigenvalues --    2.07581   2.07959   2.10005   2.10602   2.13258
 Alpha virt. eigenvalues --    2.14637   2.15888   2.16763   2.16900   2.19153
 Alpha virt. eigenvalues --    2.21029   2.21450   2.22262   2.22830   2.23668
 Alpha virt. eigenvalues --    2.24809   2.25726   2.28358   2.30798   2.31693
 Alpha virt. eigenvalues --    2.33118   2.34635   2.35284   2.36358   2.37151
 Alpha virt. eigenvalues --    2.38446   2.41403   2.42420   2.42699   2.43234
 Alpha virt. eigenvalues --    2.44291   2.46248   2.46756   2.53042   2.53516
 Alpha virt. eigenvalues --    2.54422   2.54512   2.55539   2.57203   2.58197
 Alpha virt. eigenvalues --    2.58673   2.59809   2.61253   2.63479   2.64122
 Alpha virt. eigenvalues --    2.64696   2.65130   2.65369   2.66162   2.67970
 Alpha virt. eigenvalues --    2.68214   2.68688   2.70438   2.71005   2.71156
 Alpha virt. eigenvalues --    2.71633   2.72256   2.73453   2.74434   2.75152
 Alpha virt. eigenvalues --    2.78756   2.80563   2.81284   2.82456   2.83426
 Alpha virt. eigenvalues --    2.83546   2.84442   2.86390   2.86889   2.87174
 Alpha virt. eigenvalues --    2.87211   2.88346   2.90093   2.91152   2.91699
 Alpha virt. eigenvalues --    2.92515   2.93958   2.94497   2.95462   2.95497
 Alpha virt. eigenvalues --    2.97291   2.99295   3.00051   3.01031   3.01586
 Alpha virt. eigenvalues --    3.02836   3.07336   3.08322   3.09324   3.09697
 Alpha virt. eigenvalues --    3.11688   3.14046   3.15734   3.17460   3.18166
 Alpha virt. eigenvalues --    3.20086   3.24631   3.25448   3.27537   3.29234
 Alpha virt. eigenvalues --    3.32439   3.37087   3.38165   3.41698   3.44425
 Alpha virt. eigenvalues --    3.45580   3.50844   3.53033   3.57670   3.57912
 Alpha virt. eigenvalues --    3.58032   3.66572   3.68664   3.69840   3.71521
 Alpha virt. eigenvalues --    3.85727   3.88056   3.88939   3.89711   3.89972
 Alpha virt. eigenvalues --    3.90601   3.91033   3.91555   3.92951   3.93489
 Alpha virt. eigenvalues --    3.93825   3.95360   3.95813   3.96543   3.99789
 Alpha virt. eigenvalues --    4.00017   4.01934   4.03586   4.06062   4.08296
 Alpha virt. eigenvalues --    4.10357   4.13217   4.16802   4.21566   4.29539
 Alpha virt. eigenvalues --    4.30284   4.31366   4.37610   4.38496   4.43908
 Alpha virt. eigenvalues --    4.45044   4.47012   4.48983   4.65295   4.72209
 Alpha virt. eigenvalues --    4.96169   5.04691   5.12871   6.44032   6.49428
 Alpha virt. eigenvalues --    6.49844   6.57653   6.62423   6.84653  14.81893
 Alpha virt. eigenvalues --   23.80205  23.93522  23.97795  24.07718  24.10954
 Alpha virt. eigenvalues --   24.11846  24.12390  24.14141  24.14669  24.17547
 Alpha virt. eigenvalues --   24.18237  24.20208  24.22646  24.23778  24.33281
 Alpha virt. eigenvalues --   35.82024  66.96894  66.99928
          Condensed to atoms (all electrons):
               1          2          3          4          5          6
     1  C    8.732689  -0.532097  -2.670064   0.348994  -1.195724   1.070648
     2  C   -0.532097  12.629642  -2.762880  -2.447147   1.278775  -1.601653
     3  C   -2.670064  -2.762880  12.014216   1.284754  -1.345143   0.472398
     4  C    0.348994  -2.447147   1.284754   8.113793  -0.080285  -0.941948
     5  C   -1.195724   1.278775  -1.345143  -0.080285   8.554418  -1.015687
     6  C    1.070648  -1.601653   0.472398  -0.941948  -1.015687   8.469471
     7  H    0.394250  -0.069510   0.082927   0.064000  -0.071419  -0.068181
     8  H    0.021007   0.552581  -0.247971  -0.032893   0.066312  -0.022645
     9  H   -0.072973   0.168479  -0.031148   0.021126   0.536574  -0.286754
    10  H   -0.005827  -0.011969  -0.007324   0.033790  -0.038707   0.359444
    11  B    0.195292   0.223203   0.126912  -0.171957  -0.037078   0.059830
    12  C    0.037160  -0.430430  -0.278493   0.216685  -0.187623  -0.446487
    13  C    0.033035  -0.442053  -0.267173   0.234090  -0.185628  -0.446024
    14  C    0.007374   0.120564   0.136879  -0.152401  -0.074836  -0.008361
    15  C    0.007200   0.113992   0.129630  -0.159635  -0.073844  -0.004442
    16  C    0.011958   0.012114   0.031135   0.125372  -0.005194  -0.015252
    17  H    0.000315  -0.003143  -0.001369  -0.010696   0.001746  -0.000087
    18  H   -0.002964  -0.004441   0.003051  -0.016523  -0.005810  -0.002075
    19  H    0.000320  -0.003350  -0.001559  -0.010954   0.001968   0.000030
    20  H   -0.003005  -0.004712   0.002855  -0.016598  -0.005883  -0.001997
    21  H    0.000298  -0.000771  -0.000939   0.012552   0.006254   0.003054
    22  H   -0.001940   0.004500   0.002294   0.010859  -0.015138  -0.008229
    23  N    0.119046  -0.449474  -0.174495  -0.229187  -0.162323   0.293315
    24  C   -0.001513  -0.061960  -0.165190  -0.033965   0.073700   0.029897
    25  H    0.000471   0.010241   0.007063  -0.001946  -0.000596  -0.017820
    26  H    0.000098  -0.007666  -0.001073  -0.016163  -0.004266   0.011053
    27  H    0.022231  -0.039471  -0.007646  -0.005272   0.012358   0.077537
    28  C   -0.000642  -0.062349  -0.164162  -0.034200   0.069217   0.028095
    29  H    0.000135  -0.007788  -0.000588  -0.015976  -0.004534   0.010984
    30  H    0.000459   0.010209   0.006933  -0.002207  -0.000538  -0.017773
    31  H    0.022249  -0.039375  -0.007826  -0.004771   0.012222   0.076841
    32  C   -0.051600   0.034833   0.127669  -0.132368  -0.020484   0.210121
    33  H    0.014721   0.013954  -0.013429   0.001744   0.015992  -0.005325
    34  H   -0.023418  -0.035125   0.020221   0.012516   0.006956  -0.000556
    35  H   -0.004832  -0.012138  -0.002699   0.014152   0.004744   0.018650
    36  C   -0.056724   0.018744   0.129866  -0.125128  -0.014813   0.216292
    37  H   -0.022721  -0.035954   0.018129   0.011251   0.006020  -0.000329
    38  H    0.014532   0.015058  -0.012931   0.000826   0.016235  -0.005829
    39  H   -0.004804  -0.012763  -0.003048   0.014665   0.004806   0.018969
    40  F    0.039880  -0.202375   0.165987   0.078701   0.002586   0.009019
    41  F    0.028513   0.177858  -0.189240  -0.049564  -0.003116   0.012584
               7          8          9         10         11         12
     1  C    0.394250   0.021007  -0.072973  -0.005827   0.195292   0.037160
     2  C   -0.069510   0.552581   0.168479  -0.011969   0.223203  -0.430430
     3  C    0.082927  -0.247971  -0.031148  -0.007324   0.126912  -0.278493
     4  C    0.064000  -0.032893   0.021126   0.033790  -0.171957   0.216685
     5  C   -0.071419   0.066312   0.536574  -0.038707  -0.037078  -0.187623
     6  C   -0.068181  -0.022645  -0.286754   0.359444   0.059830  -0.446487
     7  H    0.461414  -0.007439  -0.002085  -0.007494  -0.004796   0.003355
     8  H   -0.007439   0.460717   0.004291   0.000537  -0.037290   0.002544
     9  H   -0.002085   0.004291   0.559896  -0.007409  -0.014123   0.061191
    10  H   -0.007494   0.000537  -0.007409   0.432496   0.001854  -0.005630
    11  B   -0.004796  -0.037290  -0.014123   0.001854   3.695117  -0.051771
    12  C    0.003355   0.002544   0.061191  -0.005630  -0.051771  10.336568
    13  C    0.003344   0.002166   0.062318  -0.005642  -0.050501   0.526668
    14  C   -0.000422  -0.000851  -0.022634   0.000910   0.072576  -1.947797
    15  C   -0.000419  -0.001082  -0.023737   0.000922   0.073025  -0.209680
    16  C    0.000367   0.001560   0.020841  -0.000997  -0.028855   0.502679
    17  H   -0.000005  -0.000074  -0.000572  -0.000021  -0.000660   0.020314
    18  H    0.000026  -0.000166   0.001495  -0.000041  -0.004178   0.054365
    19  H   -0.000004  -0.000081  -0.000584  -0.000024  -0.000791   0.025607
    20  H    0.000024  -0.000160   0.001481  -0.000040  -0.004239  -0.025515
    21  H    0.000006   0.000019  -0.001167   0.000027   0.002017  -0.023885
    22  H   -0.000036   0.000072   0.009334  -0.000075  -0.000189   0.117950
    23  N    0.004132  -0.006018  -0.125928  -0.001379  -0.085526  -0.699883
    24  C    0.001435   0.001126   0.019016  -0.003078  -0.051284   0.025595
    25  H   -0.000022   0.000168  -0.000787  -0.000089  -0.001156  -0.022408
    26  H    0.000020  -0.000240  -0.008041   0.000427   0.001584  -0.004987
    27  H    0.001024  -0.000513  -0.023258  -0.000716  -0.000055  -0.057819
    28  C    0.001422   0.001023   0.018857  -0.003052  -0.050613   0.310130
    29  H    0.000021  -0.000261  -0.008162   0.000437   0.001685   0.038734
    30  H   -0.000022   0.000172  -0.000799  -0.000088  -0.001142  -0.037058
    31  H    0.001029  -0.000499  -0.023232  -0.000743  -0.000066  -0.021889
    32  C   -0.003268  -0.009655  -0.019044   0.005478   0.089742  -0.163050
    33  H   -0.000739   0.002522   0.005305  -0.000880  -0.003744   0.001924
    34  H    0.000343   0.002064   0.005249  -0.000185  -0.038541   0.051171
    35  H   -0.000025  -0.000475  -0.002723   0.000410  -0.003260  -0.019952
    36  C   -0.003195  -0.010173  -0.019071   0.005412   0.089285  -1.283839
    37  H    0.000314   0.002220   0.005198  -0.000170  -0.038407  -0.038217
    38  H   -0.000754   0.002587   0.005354  -0.000859  -0.003860   0.081848
    39  H   -0.000020  -0.000514  -0.002794   0.000403  -0.003349  -0.082542
    40  F   -0.000044   0.006976  -0.000799   0.000105   0.312369   0.039731
    41  F   -0.000370   0.002351  -0.001399   0.000264   0.411268   0.006165
              13         14         15         16         17         18
     1  C    0.033035   0.007374   0.007200   0.011958   0.000315  -0.002964
     2  C   -0.442053   0.120564   0.113992   0.012114  -0.003143  -0.004441
     3  C   -0.267173   0.136879   0.129630   0.031135  -0.001369   0.003051
     4  C    0.234090  -0.152401  -0.159635   0.125372  -0.010696  -0.016523
     5  C   -0.185628  -0.074836  -0.073844  -0.005194   0.001746  -0.005810
     6  C   -0.446024  -0.008361  -0.004442  -0.015252  -0.000087  -0.002075
     7  H    0.003344  -0.000422  -0.000419   0.000367  -0.000005   0.000026
     8  H    0.002166  -0.000851  -0.001082   0.001560  -0.000074  -0.000166
     9  H    0.062318  -0.022634  -0.023737   0.020841  -0.000572   0.001495
    10  H   -0.005642   0.000910   0.000922  -0.000997  -0.000021  -0.000041
    11  B   -0.050501   0.072576   0.073025  -0.028855  -0.000660  -0.004178
    12  C    0.526668  -1.947797  -0.209680   0.502679   0.020314   0.054365
    13  C   10.379908  -0.222871  -1.957658   0.510976   0.025253  -0.026147
    14  C   -0.222871   9.055753  -0.316702  -0.791387   0.433415   0.427256
    15  C   -1.957658  -0.316702   9.040993  -0.791639  -0.041254   0.005582
    16  C    0.510976  -0.791387  -0.791639   6.643946  -0.060403  -0.049669
    17  H    0.025253   0.433415  -0.041254  -0.060403   0.521580  -0.027498
    18  H   -0.026147   0.427256   0.005582  -0.049669  -0.027498   0.516383
    19  H    0.020861  -0.041847   0.432550  -0.060434  -0.001423  -0.000437
    20  H    0.055188   0.004664   0.427684  -0.049479  -0.000438  -0.004928
    21  H   -0.023701  -0.025134  -0.025804   0.419495  -0.007537  -0.013036
    22  H    0.117776  -0.116285  -0.115528   0.501472  -0.002266   0.007206
    23  N   -0.717256   0.013658   0.018996  -0.174409   0.027627  -0.035748
    24  C    0.310829   0.141208  -1.314001   0.214821   0.020058  -0.011046
    25  H   -0.037381   0.006005  -0.033369   0.010239  -0.000269   0.000430
    26  H    0.039162   0.060597  -0.027903  -0.011526   0.002770  -0.001389
    27  H   -0.022139  -0.001772  -0.018823   0.008901   0.000817  -0.000183
    28  C    0.028078  -1.323491   0.141756   0.222463  -0.040318   0.030425
    29  H   -0.005719  -0.029025   0.061279  -0.011088  -0.003245   0.004221
    30  H   -0.022125  -0.032520   0.005691   0.009861  -0.000911  -0.000393
    31  H   -0.057788  -0.019648  -0.001845   0.009074   0.001151  -0.007108
    32  C   -1.308980   0.240189   0.704604  -0.347166  -0.008984   0.017415
    33  H    0.083321  -0.026819   0.078641  -0.003032  -0.000811  -0.000309
    34  H   -0.039790  -0.015981  -0.075340   0.033148  -0.000285   0.006584
    35  H   -0.086354   0.028528  -0.086055  -0.023013   0.000158   0.000245
    36  C   -0.162992   0.690417   0.236163  -0.347353  -0.024034  -0.017562
    37  H    0.052410  -0.077046  -0.016546   0.033854   0.000386  -0.000141
    38  H    0.001423   0.081166  -0.026796  -0.003380   0.002957   0.000985
    39  H   -0.019821  -0.089660   0.028287  -0.022577   0.000344  -0.005073
    40  F    0.040824  -0.010107  -0.010221   0.000357   0.000164   0.000520
    41  F    0.002424  -0.012988  -0.011867   0.008689  -0.000273  -0.002941
              19         20         21         22         23         24
     1  C    0.000320  -0.003005   0.000298  -0.001940   0.119046  -0.001513
     2  C   -0.003350  -0.004712  -0.000771   0.004500  -0.449474  -0.061960
     3  C   -0.001559   0.002855  -0.000939   0.002294  -0.174495  -0.165190
     4  C   -0.010954  -0.016598   0.012552   0.010859  -0.229187  -0.033965
     5  C    0.001968  -0.005883   0.006254  -0.015138  -0.162323   0.073700
     6  C    0.000030  -0.001997   0.003054  -0.008229   0.293315   0.029897
     7  H   -0.000004   0.000024   0.000006  -0.000036   0.004132   0.001435
     8  H   -0.000081  -0.000160   0.000019   0.000072  -0.006018   0.001126
     9  H   -0.000584   0.001481  -0.001167   0.009334  -0.125928   0.019016
    10  H   -0.000024  -0.000040   0.000027  -0.000075  -0.001379  -0.003078
    11  B   -0.000791  -0.004239   0.002017  -0.000189  -0.085526  -0.051284
    12  C    0.025607  -0.025515  -0.023885   0.117950  -0.699883   0.025595
    13  C    0.020861   0.055188  -0.023701   0.117776  -0.717256   0.310829
    14  C   -0.041847   0.004664  -0.025134  -0.116285   0.013658   0.141208
    15  C    0.432550   0.427684  -0.025804  -0.115528   0.018996  -1.314001
    16  C   -0.060434  -0.049479   0.419495   0.501472  -0.174409   0.214821
    17  H   -0.001423  -0.000438  -0.007537  -0.002266   0.027627   0.020058
    18  H   -0.000437  -0.004928  -0.013036   0.007206  -0.035748  -0.011046
    19  H    0.521538  -0.027181  -0.007628  -0.002173   0.028110  -0.039771
    20  H   -0.027181   0.515902  -0.013025   0.007177  -0.036120   0.030786
    21  H   -0.007628  -0.013025   0.488321  -0.036172  -0.004646  -0.010013
    22  H   -0.002173   0.007177  -0.036172   0.558161  -0.066166  -0.053113
    23  N    0.028110  -0.036120  -0.004646  -0.066166   8.715850   0.061537
    24  C   -0.039771   0.030786  -0.010013  -0.053113   0.061537   7.169852
    25  H   -0.001013  -0.000408  -0.000668  -0.001891   0.037825   0.451254
    26  H   -0.003130   0.004223   0.000262  -0.004177  -0.011962   0.354324
    27  H    0.001107  -0.007081   0.001451  -0.009908   0.015471   0.358895
    28  C    0.019948  -0.010769  -0.010126  -0.052674   0.063119  -0.042972
    29  H    0.002758  -0.001337   0.000247  -0.004187  -0.012209  -0.036412
    30  H   -0.000275   0.000414  -0.000668  -0.001875   0.037882   0.004025
    31  H    0.000822  -0.000192   0.001438  -0.009906   0.015727   0.030033
    32  C   -0.024329  -0.018480   0.011898   0.012786  -0.012423  -0.901166
    33  H    0.002973   0.000982   0.000077   0.000300  -0.051009  -0.094527
    34  H    0.000451   0.000070  -0.001023   0.003653   0.030899   0.056017
    35  H    0.000294  -0.005005   0.000707  -0.001384   0.034487   0.000506
    36  C   -0.008799   0.017501   0.011674   0.012787  -0.017730  -0.122187
    37  H   -0.000257   0.006562  -0.001035   0.003650   0.032315   0.001149
    38  H   -0.000822  -0.000308   0.000091   0.000306  -0.050669   0.007046
    39  H    0.000178   0.000240   0.000674  -0.001409   0.034021  -0.002226
    40  F    0.000173   0.000494   0.000009  -0.000088  -0.027845   0.002803
    41  F   -0.000264  -0.002874   0.000965  -0.000567  -0.023101   0.002146
              25         26         27         28         29         30
     1  C    0.000471   0.000098   0.022231  -0.000642   0.000135   0.000459
     2  C    0.010241  -0.007666  -0.039471  -0.062349  -0.007788   0.010209
     3  C    0.007063  -0.001073  -0.007646  -0.164162  -0.000588   0.006933
     4  C   -0.001946  -0.016163  -0.005272  -0.034200  -0.015976  -0.002207
     5  C   -0.000596  -0.004266   0.012358   0.069217  -0.004534  -0.000538
     6  C   -0.017820   0.011053   0.077537   0.028095   0.010984  -0.017773
     7  H   -0.000022   0.000020   0.001024   0.001422   0.000021  -0.000022
     8  H    0.000168  -0.000240  -0.000513   0.001023  -0.000261   0.000172
     9  H   -0.000787  -0.008041  -0.023258   0.018857  -0.008162  -0.000799
    10  H   -0.000089   0.000427  -0.000716  -0.003052   0.000437  -0.000088
    11  B   -0.001156   0.001584  -0.000055  -0.050613   0.001685  -0.001142
    12  C   -0.022408  -0.004987  -0.057819   0.310130   0.038734  -0.037058
    13  C   -0.037381   0.039162  -0.022139   0.028078  -0.005719  -0.022125
    14  C    0.006005   0.060597  -0.001772  -1.323491  -0.029025  -0.032520
    15  C   -0.033369  -0.027903  -0.018823   0.141756   0.061279   0.005691
    16  C    0.010239  -0.011526   0.008901   0.222463  -0.011088   0.009861
    17  H   -0.000269   0.002770   0.000817  -0.040318  -0.003245  -0.000911
    18  H    0.000430  -0.001389  -0.000183   0.030425   0.004221  -0.000393
    19  H   -0.001013  -0.003130   0.001107   0.019948   0.002758  -0.000275
    20  H   -0.000408   0.004223  -0.007081  -0.010769  -0.001337   0.000414
    21  H   -0.000668   0.000262   0.001451  -0.010126   0.000247  -0.000668
    22  H   -0.001891  -0.004177  -0.009908  -0.052674  -0.004187  -0.001875
    23  N    0.037825  -0.011962   0.015471   0.063119  -0.012209   0.037882
    24  C    0.451254   0.354324   0.358895  -0.042972  -0.036412   0.004025
    25  H    0.515859  -0.040077  -0.022484   0.004243   0.002638   0.000268
    26  H   -0.040077   0.602066  -0.037564  -0.037074  -0.005144   0.002638
    27  H   -0.022484  -0.037564   0.561676   0.029780  -0.001275  -0.001058
    28  C    0.004243  -0.037074   0.029780   7.166597   0.354802   0.451596
    29  H    0.002638  -0.005144  -0.001275   0.354802   0.601638  -0.040074
    30  H    0.000268   0.002638  -0.001058   0.451596  -0.040074   0.515994
    31  H   -0.001047  -0.001324   0.006999   0.359400  -0.037525  -0.022472
    32  C   -0.047907   0.018057   0.014112  -0.127640   0.004557  -0.001423
    33  H    0.002276  -0.004758  -0.004673   0.007244   0.002459   0.000360
    34  H    0.003808  -0.007984   0.001505   0.001038   0.000206  -0.000380
    35  H   -0.007698   0.006751   0.003723  -0.002619  -0.002294  -0.000141
    36  C   -0.001640   0.004952  -0.011633  -0.890544   0.018683  -0.048869
    37  H   -0.000374   0.000240  -0.000767   0.056559  -0.007986   0.003841
    38  H    0.000363   0.002490  -0.001660  -0.096682  -0.004931   0.002346
    39  H   -0.000151  -0.002290   0.000703   0.003125   0.006890  -0.007825
    40  F   -0.000118   0.000003   0.000400   0.002760   0.000004  -0.000121
    41  F   -0.000258   0.000422   0.000159   0.002377   0.000456  -0.000249
              31         32         33         34         35         36
     1  C    0.022249  -0.051600   0.014721  -0.023418  -0.004832  -0.056724
     2  C   -0.039375   0.034833   0.013954  -0.035125  -0.012138   0.018744
     3  C   -0.007826   0.127669  -0.013429   0.020221  -0.002699   0.129866
     4  C   -0.004771  -0.132368   0.001744   0.012516   0.014152  -0.125128
     5  C    0.012222  -0.020484   0.015992   0.006956   0.004744  -0.014813
     6  C    0.076841   0.210121  -0.005325  -0.000556   0.018650   0.216292
     7  H    0.001029  -0.003268  -0.000739   0.000343  -0.000025  -0.003195
     8  H   -0.000499  -0.009655   0.002522   0.002064  -0.000475  -0.010173
     9  H   -0.023232  -0.019044   0.005305   0.005249  -0.002723  -0.019071
    10  H   -0.000743   0.005478  -0.000880  -0.000185   0.000410   0.005412
    11  B   -0.000066   0.089742  -0.003744  -0.038541  -0.003260   0.089285
    12  C   -0.021889  -0.163050   0.001924   0.051171  -0.019952  -1.283839
    13  C   -0.057788  -1.308980   0.083321  -0.039790  -0.086354  -0.162992
    14  C   -0.019648   0.240189  -0.026819  -0.015981   0.028528   0.690417
    15  C   -0.001845   0.704604   0.078641  -0.075340  -0.086055   0.236163
    16  C    0.009074  -0.347166  -0.003032   0.033148  -0.023013  -0.347353
    17  H    0.001151  -0.008984  -0.000811  -0.000285   0.000158  -0.024034
    18  H   -0.007108   0.017415  -0.000309   0.006584   0.000245  -0.017562
    19  H    0.000822  -0.024329   0.002973   0.000451   0.000294  -0.008799
    20  H   -0.000192  -0.018480   0.000982   0.000070  -0.005005   0.017501
    21  H    0.001438   0.011898   0.000077  -0.001023   0.000707   0.011674
    22  H   -0.009906   0.012786   0.000300   0.003653  -0.001384   0.012787
    23  N    0.015727  -0.012423  -0.051009   0.030899   0.034487  -0.017730
    24  C    0.030033  -0.901166  -0.094527   0.056017   0.000506  -0.122187
    25  H   -0.001047  -0.047907   0.002276   0.003808  -0.007698  -0.001640
    26  H   -0.001324   0.018057  -0.004758  -0.007984   0.006751   0.004952
    27  H    0.006999   0.014112  -0.004673   0.001505   0.003723  -0.011633
    28  C    0.359400  -0.127640   0.007244   0.001038  -0.002619  -0.890544
    29  H   -0.037525   0.004557   0.002459   0.000206  -0.002294   0.018683
    30  H   -0.022472  -0.001423   0.000360  -0.000380  -0.000141  -0.048869
    31  H    0.561787  -0.011866  -0.001633  -0.000754   0.000675   0.014096
    32  C   -0.011866   6.816726   0.362797   0.321532   0.474097   0.185149
    33  H   -0.001633   0.362797   0.525704  -0.038725  -0.040274   0.000878
    34  H   -0.000754   0.321532  -0.038725   0.610415  -0.024828  -0.022079
    35  H    0.000675   0.474097  -0.040274  -0.024828   0.538652   0.003706
    36  C    0.014096   0.185149   0.000878  -0.022079   0.003706   6.799797
    37  H    0.001493  -0.022587   0.000696  -0.000009  -0.000347   0.322218
    38  H   -0.004661   0.001387  -0.000697   0.000691   0.000023   0.363614
    39  H    0.003820   0.003398   0.000008  -0.000355   0.000087   0.471716
    40  F    0.000403  -0.020865  -0.000158  -0.005471  -0.000249  -0.020281
    41  F    0.000140   0.001910  -0.002703   0.008445   0.002425   0.000972
              37         38         39         40         41
     1  C   -0.022721   0.014532  -0.004804   0.039880   0.028513
     2  C   -0.035954   0.015058  -0.012763  -0.202375   0.177858
     3  C    0.018129  -0.012931  -0.003048   0.165987  -0.189240
     4  C    0.011251   0.000826   0.014665   0.078701  -0.049564
     5  C    0.006020   0.016235   0.004806   0.002586  -0.003116
     6  C   -0.000329  -0.005829   0.018969   0.009019   0.012584
     7  H    0.000314  -0.000754  -0.000020  -0.000044  -0.000370
     8  H    0.002220   0.002587  -0.000514   0.006976   0.002351
     9  H    0.005198   0.005354  -0.002794  -0.000799  -0.001399
    10  H   -0.000170  -0.000859   0.000403   0.000105   0.000264
    11  B   -0.038407  -0.003860  -0.003349   0.312369   0.411268
    12  C   -0.038217   0.081848  -0.082542   0.039731   0.006165
    13  C    0.052410   0.001423  -0.019821   0.040824   0.002424
    14  C   -0.077046   0.081166  -0.089660  -0.010107  -0.012988
    15  C   -0.016546  -0.026796   0.028287  -0.010221  -0.011867
    16  C    0.033854  -0.003380  -0.022577   0.000357   0.008689
    17  H    0.000386   0.002957   0.000344   0.000164  -0.000273
    18  H   -0.000141   0.000985  -0.005073   0.000520  -0.002941
    19  H   -0.000257  -0.000822   0.000178   0.000173  -0.000264
    20  H    0.006562  -0.000308   0.000240   0.000494  -0.002874
    21  H   -0.001035   0.000091   0.000674   0.000009   0.000965
    22  H    0.003650   0.000306  -0.001409  -0.000088  -0.000567
    23  N    0.032315  -0.050669   0.034021  -0.027845  -0.023101
    24  C    0.001149   0.007046  -0.002226   0.002803   0.002146
    25  H   -0.000374   0.000363  -0.000151  -0.000118  -0.000258
    26  H    0.000240   0.002490  -0.002290   0.000003   0.000422
    27  H   -0.000767  -0.001660   0.000703   0.000400   0.000159
    28  C    0.056559  -0.096682   0.003125   0.002760   0.002377
    29  H   -0.007986  -0.004931   0.006890   0.000004   0.000456
    30  H    0.003841   0.002346  -0.007825  -0.000121  -0.000249
    31  H    0.001493  -0.004661   0.003820   0.000403   0.000140
    32  C   -0.022587   0.001387   0.003398  -0.020865   0.001910
    33  H    0.000696  -0.000697   0.000008  -0.000158  -0.002703
    34  H   -0.000009   0.000691  -0.000355  -0.005471   0.008445
    35  H   -0.000347   0.000023   0.000087  -0.000249   0.002425
    36  C    0.322218   0.363614   0.471716  -0.020281   0.000972
    37  H    0.611761  -0.038575  -0.025051  -0.006075   0.008155
    38  H   -0.038575   0.525966  -0.040701  -0.000111  -0.002722
    39  H   -0.025051  -0.040701   0.539129  -0.000219   0.002380
    40  F   -0.006075  -0.000111  -0.000219   8.738120  -0.104160
    41  F    0.008155  -0.002722   0.002380  -0.104160   8.671978
 Mulliken charges:
               1
     1  C   -0.472027
     2  C   -0.104151
     3  C   -0.406531
     4  C    0.091910
     5  C   -0.122214
     6  C   -0.530780
     7  H    0.220816
     8  H    0.245981
     9  H    0.193217
    10  H    0.259524
    11  B    0.331673
    12  C   -0.421428
    13  C   -0.422308
    14  C   -0.160573
    15  C   -0.162807
    16  C   -0.536470
    17  H    0.177524
    18  H    0.163615
    19  H    0.177444
    20  H    0.163530
    21  H    0.245444
    22  H    0.135094
    23  N    0.591490
    24  C   -0.423635
    25  H    0.188425
    26  H    0.126602
    27  H    0.156924
    28  C   -0.424129
    29  H    0.126924
    30  H    0.188325
    31  H    0.156771
    32  C   -0.405175
    33  H    0.169367
    34  H    0.153850
    35  H    0.193346
    36  C   -0.405277
    37  H    0.154176
    38  H    0.169655
    39  H    0.193349
    40  F   -0.033082
    41  F    0.055608
 Sum of Mulliken charges =  -0.00000
 Mulliken charges with hydrogens summed into heavy atoms:
               1
     1  C   -0.251210
     2  C    0.141830
     3  C   -0.406531
     4  C    0.091910
     5  C    0.071004
     6  C   -0.271256
    11  B    0.331673
    12  C   -0.421428
    13  C   -0.422308
    14  C    0.180566
    15  C    0.178167
    16  C   -0.155932
    23  N    0.591490
    24  C    0.048316
    28  C    0.047892
    32  C    0.111388
    36  C    0.111903
    40  F   -0.033082
    41  F    0.055608
 Electronic spatial extent (au):  <R**2>=          13297.0168
 Charge=             -0.0000 electrons
 Dipole moment (field-independent basis, Debye):
    X=             -2.4404    Y=              1.2862    Z=              0.8399  Tot=              2.8836
 Quadrupole moment (field-independent basis, Debye-Ang):
   XX=           -121.2354   YY=           -103.3284   ZZ=           -114.1589
   XY=             -1.6155   XZ=              0.9802   YZ=              0.0789
 Traceless Quadrupole moment (field-independent basis, Debye-Ang):
   XX=             -8.3278   YY=              9.5792   ZZ=             -1.2514
   XY=             -1.6155   XZ=              0.9802   YZ=              0.0789
 Octapole moment (field-independent basis, Debye-Ang**2):
  XXX=           -472.6326  YYY=          -1310.0784  ZZZ=             82.6829  XYY=           -136.4501
  XXY=           -464.6211  XXZ=             49.2887  XZZ=           -145.7148  YZZ=           -453.8149
  YYZ=             28.8502  XYZ=              3.8710
 Hexadecapole moment (field-independent basis, Debye-Ang**3):
 XXXX=          -2766.2354 YYYY=         -13602.8359 ZZZZ=          -1421.1307 XXXY=          -1956.5504
 XXXZ=            243.5929 YYYX=          -1791.1320 YYYZ=            544.7919 ZZZX=            204.3281
 ZZZY=            527.7125 XXYY=          -2762.7694 XXZZ=           -675.8606 YYZZ=          -2522.9357
 XXYZ=            234.8469 YYXZ=             89.4389 ZZXY=           -626.3565
 N-N= 1.593073511815D+03 E-N=-5.204513373325D+03  KE= 8.606293506740D+02
 Breneman (CHELPG) radii used.
 Generate Potential Derived Charges using the Breneman model, NDens= 1.
 Grid spacing= 0.300 Box extension= 2.800
 NStep X,Y,Z=   40     45     41   Total possible points=       73800
 Number of Points to Fit=   19094

 **********************************************************************

            Electrostatic Properties Using The SCF Density.

 **********************************************************************

       Atomic Center    1 is at  -0.640157  1.036665  0.987008
       Atomic Center    2 is at   0.638262  0.966976  0.454366
       Atomic Center    3 is at   1.308557  2.111717 -0.001336
       Atomic Center    4 is at   0.663765  3.364229  0.084429
       Atomic Center    5 is at  -0.623851  3.417055  0.622931
       Atomic Center    6 is at  -1.270451  2.270770  1.069598
       Atomic Center    7 is at  -1.139006  0.138952  1.333295
       Atomic Center    8 is at   1.133007  0.004480  0.388032
       Atomic Center    9 is at  -1.128160  4.371277  0.693237
       Atomic Center   10 is at  -2.270579  2.345708  1.482935
       Atomic Center   11 is at   2.733111  1.898704 -0.574045
       Atomic Center   12 is at   0.890064  5.070432 -1.690843
       Atomic Center   13 is at   1.891081  5.428764  0.672925
       Atomic Center   14 is at   1.990495  5.997886 -2.233622
       Atomic Center   15 is at   2.947287  6.338825  0.023628
       Atomic Center   16 is at   2.444396  7.043941 -1.226888
       Atomic Center   17 is at   1.624775  6.470339 -3.150773
       Atomic Center   18 is at   2.852301  5.378854 -2.506152
       Atomic Center   19 is at   3.288295  7.062631  0.770580
       Atomic Center   20 is at   3.808695  5.718812 -0.247874
       Atomic Center   21 is at   3.242881  7.655079 -1.657744
       Atomic Center   22 is at   1.626580  7.731414 -0.984220
       Atomic Center   23 is at   1.329059  4.538434 -0.375094
       Atomic Center   24 is at   0.851341  6.290872  1.422988
       Atomic Center   25 is at   1.355531  6.882094  2.193310
       Atomic Center   26 is at   0.325850  6.985108  0.767842
       Atomic Center   27 is at   0.110841  5.666144  1.926389
       Atomic Center   28 is at  -0.460704  5.819852 -1.672504
       Atomic Center   29 is at  -0.442390  6.708794 -1.042655
       Atomic Center   30 is at  -0.714191  6.140153 -2.687541
       Atomic Center   31 is at  -1.266814  5.169957 -1.326187
       Atomic Center   32 is at   2.611080  4.575083  1.726975
       Atomic Center   33 is at   1.918565  3.940130  2.284714
       Atomic Center   34 is at   3.371034  3.943253  1.263442
       Atomic Center   35 is at   3.109032  5.234889  2.442380
       Atomic Center   36 is at   0.745012  3.907067 -2.682703
       Atomic Center   37 is at   1.672968  3.336180 -2.752103
       Atomic Center   38 is at  -0.065095  3.228474 -2.405191
       Atomic Center   39 is at   0.519382  4.308400 -3.674226
       Atomic Center   40 is at   3.239758  0.658307 -0.615721
       Atomic Center   41 is at   3.553127  2.829607 -1.048628
   19094 points will be used for fitting atomic charges
 Fitting point charges to electrostatic potential
 Charges from ESP fit, RMS=   0.00264 RRMS=   0.29655:
 ESP charges:
               1
     1  C   -0.142207
     2  C   -0.065188
     3  C   -0.427680
     4  C    0.711850
     5  C   -0.271316
     6  C   -0.063068
     7  H    0.113192
     8  H    0.110029
     9  H    0.147293
    10  H    0.106747
    11  B    0.882385
    12  C    0.820012
    13  C    0.831260
    14  C   -0.317952
    15  C   -0.300534
    16  C    0.203028
    17  H    0.030599
    18  H    0.068827
    19  H    0.025248
    20  H    0.064889
    21  H   -0.003765
    22  H   -0.061976
    23  N   -1.019226
    24  C   -0.370006
    25  H    0.066063
    26  H    0.083563
    27  H    0.039584
    28  C   -0.357886
    29  H    0.079485
    30  H    0.063744
    31  H    0.036296
    32  C   -0.318836
    33  H    0.008115
    34  H    0.048429
    35  H    0.071578
    36  C   -0.285208
    37  H    0.040214
    38  H   -0.000199
    39  H    0.063724
    40  F   -0.376509
    41  F   -0.334598
 Sum of ESP charges =  -0.00000
 ESP charges with hydrogens summed into heavy atoms:
               1
     1  C   -0.029015
     2  C    0.044841
     3  C   -0.427680
     4  C    0.711850
     5  C   -0.124023
     6  C    0.043680
    11  B    0.882385
    12  C    0.820012
    13  C    0.831260
    14  C   -0.218526
    15  C   -0.210397
    16  C    0.137288
    23  N   -1.019226
    24  C   -0.180796
    28  C   -0.178362
    32  C   -0.190713
    36  C   -0.181471
    40  F   -0.376509
    41  F   -0.334598
 Charge=  -0.00000 Dipole=    -2.4446     1.3053     0.8408 Tot=     2.8960
 -----------------------------------------------------------------

              Electrostatic Properties (Atomic Units)

 -----------------------------------------------------------------
    Center     Electric         -------- Electric Field --------
               Potential          X             Y             Z
 -----------------------------------------------------------------
    1 Atom    -14.765609
    2 Atom    -14.762533
    3 Atom    -14.777833
    4 Atom    -14.727694
    5 Atom    -14.768816
    6 Atom    -14.757854
    7 Atom     -1.095330
    8 Atom     -1.101810
    9 Atom     -1.096076
   10 Atom     -1.090831
   11 Atom    -11.357878
   12 Atom    -14.727512
   13 Atom    -14.727579
   14 Atom    -14.785575
   15 Atom    -14.785657
   16 Atom    -14.781323
   17 Atom     -1.129773
   18 Atom     -1.137510
   19 Atom     -1.129833
   20 Atom     -1.137609
   21 Atom     -1.130898
   22 Atom     -1.130179
   23 Atom    -18.405023
   24 Atom    -14.789965
   25 Atom     -1.122690
   26 Atom     -1.122762
   27 Atom     -1.123175
   28 Atom    -14.789937
   29 Atom     -1.122721
   30 Atom     -1.122667
   31 Atom     -1.123179
   32 Atom    -14.791806
   33 Atom     -1.127753
   34 Atom     -1.129334
   35 Atom     -1.123999
   36 Atom    -14.791602
   37 Atom     -1.129043
   38 Atom     -1.127605
   39 Atom     -1.123864
   40 Atom    -26.599910
   41 Atom    -26.598340
 -----------------------------------------------------------------
 Unable to Open any file for archive entry.
 1\1\GINC-IRENE4800\SP\RwB97XD\GenECP\C15H22B1F2N1\PENASFRA\09-Apr-2024
 \0\\# wb97xd/genecp scrf=(solvent=toluene,pcm) nosymm pop=(chelpg) scf
 cyc=300\\f_tetramethylbenzopiperidine_chelpg\\0,1\C,0,-0.640157,1.0366
 65,0.987008\C,0,0.638262,0.966976,0.454366\C,0,1.308557,2.111717,-0.00
 1336\C,0,0.663765,3.364229,0.084429\C,0,-0.623851,3.417055,0.622931\C,
 0,-1.270451,2.27077,1.069598\H,0,-1.139006,0.138952,1.333295\H,0,1.133
 007,0.00448,0.388032\H,0,-1.12816,4.371277,0.693237\H,0,-2.270579,2.34
 5708,1.482935\B,0,2.733111,1.898704,-0.574045\C,0,0.890064,5.070432,-1
 .690843\C,0,1.891081,5.428764,0.672925\C,0,1.990495,5.997886,-2.233622
 \C,0,2.947287,6.338825,0.023628\C,0,2.444396,7.043941,-1.226888\H,0,1.
 624775,6.470339,-3.150773\H,0,2.852301,5.378854,-2.506152\H,0,3.288295
 ,7.062631,0.77058\H,0,3.808695,5.718812,-0.247874\H,0,3.242881,7.65507
 9,-1.657744\H,0,1.62658,7.731414,-0.98422\N,0,1.329059,4.538434,-0.375
 094\C,0,0.851341,6.290872,1.422988\H,0,1.355531,6.882094,2.19331\H,0,0
 .32585,6.985108,0.767842\H,0,0.110841,5.666144,1.926389\C,0,-0.460704,
 5.819852,-1.672504\H,0,-0.44239,6.708794,-1.042655\H,0,-0.714191,6.140
 153,-2.687541\H,0,-1.266814,5.169957,-1.326187\C,0,2.61108,4.575083,1.
 726975\H,0,1.918565,3.94013,2.284714\H,0,3.371034,3.943253,1.263442\H,
 0,3.109032,5.234889,2.44238\C,0,0.745012,3.907067,-2.682703\H,0,1.6729
 68,3.33618,-2.752103\H,0,-0.065095,3.228474,-2.405191\H,0,0.519382,4.3
 084,-3.674226\F,0,3.239758,0.658307,-0.615721\F,0,3.553127,2.829607,-1
 .048628\\Version=AS64L-G16RevC.02\HF=-864.249841\RMSD=6.260e-09\Dipole
 =-0.9601214,0.5060118,0.3304313\Quadrupole=-6.191524,7.1218795,-0.9303
 555,-1.2010782,0.7287634,0.0586832\PG=C01 [X(C15H22B1F2N1)]\\@
 The archive entry for this job was punched.


 ERWIN WITH HIS PSI CAN DO
 CALCULATIONS QUITE A FEW.
 BUT ONE THING HAS NOT BEEN SEEN
 JUST WHAT DOES PSI REALLY MEAN.
 -- WALTER HUCKEL, TRANS. BY FELIX BLOCH
 Job cpu time:       0 days  2 hours  0 minutes 47.6 seconds.
 Elapsed time:       0 days  0 hours  1 minutes 11.0 seconds.
 File lengths (MBytes):  RWF=    278 Int=      0 D2E=      0 Chk=     21 Scr=      1
 Normal termination of Gaussian 16 at Tue Apr  9 17:23:56 2024.
