 Entering Gaussian System, Link 0=/ccc/products/gaussian-16-C.02/system/default/g16/g16
 Input=f_xanthene_chelpg.gjf
 Output=f_xanthene_chelpg.log
 Initial command:
 /ccc/products/gaussian-16-C.02/system/default/g16/l1.exe "/ccc/scratch/cont003/gen7343/penasfra/flp/b-n_flp/f_xanthene/reac/Gau-516887.inp" -scrdir="/ccc/scratch/cont003/gen7343/penasfra/flp/b-n_flp/f_xanthene/reac/"
 Entering Link 1 = /ccc/products/gaussian-16-C.02/system/default/g16/l1.exe PID=    516937.
  
 Copyright (c) 1988-2021, Gaussian, Inc.  All Rights Reserved.
  
 This is part of the Gaussian(R) 16 program.  It is based on
 the Gaussian(R) 09 system (copyright 2009, Gaussian, Inc.),
 the Gaussian(R) 03 system (copyright 2003, Gaussian, Inc.),
 the Gaussian(R) 98 system (copyright 1998, Gaussian, Inc.),
 the Gaussian(R) 94 system (copyright 1995, Gaussian, Inc.),
 the Gaussian 92(TM) system (copyright 1992, Gaussian, Inc.),
 the Gaussian 90(TM) system (copyright 1990, Gaussian, Inc.),
 the Gaussian 88(TM) system (copyright 1988, Gaussian, Inc.),
 the Gaussian 86(TM) system (copyright 1986, Carnegie Mellon
 University), and the Gaussian 82(TM) system (copyright 1983,
 Carnegie Mellon University). Gaussian is a federally registered
 trademark of Gaussian, Inc.
  
 This software contains proprietary and confidential information,
 including trade secrets, belonging to Gaussian, Inc.
  
 This software is provided under written license and may be
 used, copied, transmitted, or stored only in accord with that
 written license.
  
 The following legend is applicable only to US Government
 contracts under FAR:
  
                    RESTRICTED RIGHTS LEGEND
  
 Use, reproduction and disclosure by the US Government is
 subject to restrictions as set forth in subparagraphs (a)
 and (c) of the Commercial Computer Software - Restricted
 Rights clause in FAR 52.227-19.
  
 Gaussian, Inc.
 340 Quinnipiac St., Bldg. 40, Wallingford CT 06492
  
  
 ---------------------------------------------------------------
 Warning -- This program may not be used in any manner that
 competes with the business of Gaussian, Inc. or will provide
 assistance to any competitor of Gaussian, Inc.  The licensee
 of this program is prohibited from giving any competitor of
 Gaussian, Inc. access to this program.  By using this program,
 the user acknowledges that Gaussian, Inc. is engaged in the
 business of creating and licensing software in the field of
 computational chemistry and represents and warrants to the
 licensee that it is not a competitor of Gaussian, Inc. and that
 it will not use this program in any manner prohibited above.
 ---------------------------------------------------------------
  

 Cite this work as:
 Gaussian 16, Revision C.02,
 M. J. Frisch, G. W. Trucks, H. B. Schlegel, G. E. Scuseria, 
 M. A. Robb, J. R. Cheeseman, G. Scalmani, V. Barone, 
 G. A. Petersson, H. Nakatsuji, X. Li, M. Caricato, A. V. Marenich, 
 J. Bloino, B. G. Janesko, R. Gomperts, B. Mennucci, H. P. Hratchian, 
 J. V. Ortiz, A. F. Izmaylov, J. L. Sonnenberg, D. Williams-Young, 
 F. Ding, F. Lipparini, F. Egidi, J. Goings, B. Peng, A. Petrone, 
 T. Henderson, D. Ranasinghe, V. G. Zakrzewski, J. Gao, N. Rega, 
 G. Zheng, W. Liang, M. Hada, M. Ehara, K. Toyota, R. Fukuda, 
 J. Hasegawa, M. Ishida, T. Nakajima, Y. Honda, O. Kitao, H. Nakai, 
 T. Vreven, K. Throssell, J. A. Montgomery, Jr., J. E. Peralta, 
 F. Ogliaro, M. J. Bearpark, J. J. Heyd, E. N. Brothers, K. N. Kudin, 
 V. N. Staroverov, T. A. Keith, R. Kobayashi, J. Normand, 
 K. Raghavachari, A. P. Rendell, J. C. Burant, S. S. Iyengar, 
 J. Tomasi, M. Cossi, J. M. Millam, M. Klene, C. Adamo, R. Cammi, 
 J. W. Ochterski, R. L. Martin, K. Morokuma, O. Farkas, 
 J. B. Foresman, and D. J. Fox, Gaussian, Inc., Wallingford CT, 2019.
 
 ******************************************
 Gaussian 16:  AS64L-G16RevC.02  7-Dec-2021
                10-Apr-2024 
 ******************************************
 %nprocshared=128
 Will use up to  128 processors via shared memory.
 %mem=30GB
 %chk=f_xanthene_chelpg.chk
 ----------------------------------------------------------------------
 # wb97xd/genecp scrf=(solvent=toluene,pcm) nosymm pop=(chelpg) scfcyc=
 300
 ----------------------------------------------------------------------
 1/38=1,172=1/1;
 2/12=2,15=1,17=6,18=5,40=1/2;
 3/5=7,11=2,16=1,17=8,25=1,30=1,70=2201,72=13,74=-58/1,2,3;
 4//1;
 5/5=2,7=300,38=5,53=13/2;
 6/7=2,8=2,9=2,10=2,15=8,20=3,28=1/1,2;
 99/5=1,9=1/99;
 -----------------
 f_xanthene_chelpg
 -----------------
 Symbolic Z-matrix:
 Charge =  0 Multiplicity = 1
 C                    -2.09114   1.42782   1.0294 
 C                    -0.72435   1.26821   1.29707 
 C                     0.18885   2.25634   0.97311 
 C                    -0.25558   3.43913   0.39114 
 C                    -1.60287   3.65418   0.1209 
 C                    -2.49625   2.62548   0.42515 
 H                    -0.38299   0.3492    1.75951 
 H                     1.24365   2.11605   1.17647 
 H                     0.46864   4.20914   0.15495 
 C                    -2.17629   4.96578  -0.40358 
 O                    -3.81986   2.76905   0.13731 
 C                    -1.11947   5.8157   -1.11142 
 H                    -1.55167   6.75813  -1.45259 
 H                    -0.31244   6.07758  -0.42413 
 H                    -0.69172   5.29606  -1.97251 
 C                    -2.72896   5.76459   0.80115 
 H                    -1.91954   6.00514   1.4963 
 H                    -3.18388   6.6965    0.45443 
 H                    -3.48767   5.19429   1.34194 
 C                    -3.34482   4.61476  -1.31947 
 C                    -4.15221   3.54703  -0.94989 
 C                    -3.6725    5.32414  -2.47522 
 C                    -5.31236   3.18322  -1.65858 
 C                    -4.79276   4.9744   -3.21066 
 H                    -3.0557    6.15048  -2.80317 
 C                    -5.61101   3.92809  -2.80177 
 H                    -5.04455   5.52893  -4.10754 
 H                    -6.49004   3.6861   -3.38469 
 B                    -3.0549    0.2843    1.41541 
 N                    -6.07918   2.0831   -1.23932 
 C                    -6.68156   2.19757   0.08485 
 H                    -7.52414   2.90792   0.08265 
 H                    -7.0535    1.21814   0.39227 
 H                    -5.94405   2.51815   0.81569 
 C                    -7.00902   1.53635  -2.2075 
 H                    -7.37363   0.57784  -1.8322 
 H                    -7.88477   2.18304  -2.38537 
 H                    -6.50501   1.35916  -3.15928 
 F                    -4.37859   0.34514   1.36672 
 F                    -2.55926  -0.87199   1.86991 
 
                          Input orientation:                          
 ---------------------------------------------------------------------
 Center     Atomic      Atomic             Coordinates (Angstroms)
 Number     Number       Type             X           Y           Z
 ---------------------------------------------------------------------
      1          6           0       -2.091144    1.427817    1.029402
      2          6           0       -0.724353    1.268210    1.297072
      3          6           0        0.188850    2.256336    0.973111
      4          6           0       -0.255576    3.439134    0.391138
      5          6           0       -1.602867    3.654181    0.120898
      6          6           0       -2.496254    2.625483    0.425146
      7          1           0       -0.382993    0.349196    1.759505
      8          1           0        1.243649    2.116050    1.176474
      9          1           0        0.468636    4.209144    0.154953
     10          6           0       -2.176288    4.965778   -0.403578
     11          8           0       -3.819856    2.769053    0.137311
     12          6           0       -1.119468    5.815697   -1.111418
     13          1           0       -1.551666    6.758128   -1.452585
     14          1           0       -0.312438    6.077575   -0.424125
     15          1           0       -0.691722    5.296058   -1.972506
     16          6           0       -2.728963    5.764589    0.801148
     17          1           0       -1.919541    6.005136    1.496304
     18          1           0       -3.183877    6.696500    0.454432
     19          1           0       -3.487670    5.194289    1.341943
     20          6           0       -3.344822    4.614758   -1.319473
     21          6           0       -4.152208    3.547033   -0.949890
     22          6           0       -3.672500    5.324137   -2.475218
     23          6           0       -5.312358    3.183221   -1.658576
     24          6           0       -4.792756    4.974398   -3.210655
     25          1           0       -3.055704    6.150485   -2.803170
     26          6           0       -5.611006    3.928087   -2.801768
     27          1           0       -5.044554    5.528931   -4.107537
     28          1           0       -6.490042    3.686103   -3.384686
     29          5           0       -3.054900    0.284303    1.415405
     30          7           0       -6.079183    2.083104   -1.239316
     31          6           0       -6.681556    2.197570    0.084851
     32          1           0       -7.524135    2.907923    0.082652
     33          1           0       -7.053499    1.218144    0.392265
     34          1           0       -5.944054    2.518153    0.815692
     35          6           0       -7.009018    1.536348   -2.207495
     36          1           0       -7.373628    0.577843   -1.832200
     37          1           0       -7.884768    2.183045   -2.385365
     38          1           0       -6.505007    1.359159   -3.159284
     39          9           0       -4.378593    0.345137    1.366719
     40          9           0       -2.559261   -0.871993    1.869909
 ---------------------------------------------------------------------
                    Distance matrix (angstroms):
                    1          2          3          4          5
     1  C    0.000000
     2  C    1.401870   0.000000
     3  C    2.426517   1.383938   0.000000
     4  C    2.796799   2.398620   1.391121   0.000000
     5  C    2.453669   2.801434   2.427033   1.390852   0.000000
     6  C    1.401301   2.396263   2.765198   2.384077   1.396040
     7  H    2.148081   1.083955   2.140702   3.381772   3.885364
     8  H    3.408246   2.146255   1.083346   2.148250   3.403343
     9  H    3.879809   3.372944   2.135678   1.083135   2.144824
    10  C    3.818095   4.321150   3.851003   2.579021   1.524524
    11  O    2.362877   3.630388   4.126883   3.635592   2.387208
    12  C    4.978027   5.161064   4.327356   2.941434   2.534646
    13  H    5.904533   6.195503   5.401808   4.011843   3.480367
    14  H    5.186211   5.124664   4.099442   2.762111   2.799124
    15  H    5.092457   5.187944   4.323422   3.037302   2.812167
    16  C    4.389363   4.947911   4.566294   3.419575   2.486896
    17  H    4.604269   4.889441   4.332730   3.251851   2.742082
    18  H    5.411439   6.018773   5.599944   4.380569   3.444785
    19  H    4.029178   4.801253   4.720636   3.798820   2.723117
    20  C    4.152772   4.991247   4.827518   3.721790   2.455969
    21  C    3.557620   4.689570   4.920225   4.122346   2.767166
    22  C    5.473971   6.274734   6.017674   4.841963   3.716443
    23  C    4.547844   5.783849   6.168321   5.462405   4.141093
    24  C    6.152644   7.113883   7.050401   5.992992   4.797667
    25  H    6.158131   6.788504   6.320746   5.039419   4.110042
    26  C    5.772230   6.910486   7.119185   6.254147   4.968116
    27  H    7.206241   8.125742   7.994459   6.894899   5.765376
    28  H    6.628298   7.810777   8.101989   7.292901   6.014534
    29  B    1.544490   2.532494   3.821839   4.340311   3.891044
    30  N    4.634753   5.980930   6.649292   6.197709   4.935167
    31  C    4.749377   6.149915   6.927838   6.551985   5.283569
    32  H    5.710030   7.099332   7.791510   7.294470   5.968231
    33  H    5.007482   6.393690   7.339404   7.151542   5.976396
    34  H    4.009915   5.388818   6.140508   5.778169   4.540837
    35  C    5.888528   7.200757   7.902148   7.482143   6.255645
    36  H    6.067607   7.381179   8.238822   7.987295   6.824964
    37  H    6.767354   8.103629   8.744601   8.215309   6.921552
    38  H    6.085392   7.299544   7.917660   7.482458   6.329115
    39  F    2.553116   3.769666   4.966804   5.246317   4.495164
    40  F    2.492932   2.876717   4.259437   5.106814   4.945703
                    6          7          8          9         10
     6  C    0.000000
     7  H    3.380513   0.000000
     8  H    3.848492   2.471369   0.000000
     9  H    3.372174   4.266035   2.454627   0.000000
    10  C    2.503226   5.404412   4.723715   2.807147   0.000000
    11  O    1.362125   4.505469   5.210120   4.523863   2.796333
    12  C    3.799215   6.218298   4.950370   2.589746   1.529794
    13  H    4.636472   7.263452   6.022842   3.628101   2.168660
    14  H    4.172200   6.130868   4.547197   2.106286   2.170357
    15  H    4.017094   6.204407   4.875878   2.655917   2.185076
    16  C    3.170097   5.979005   5.406880   3.614086   1.547551
    17  H    3.591940   5.866849   5.023251   3.275393   2.180765
    18  H    4.128785   7.059493   6.411307   4.429162   2.178719
    19  H    2.902100   5.769602   5.646974   4.246388   2.195173
    20  C    2.778665   6.037181   5.790281   4.108639   1.525631
    21  C    2.341402   5.636840   5.973643   4.797006   2.493101
    22  C    4.132602   7.314627   6.913407   5.030906   2.580458
    23  C    3.547310   6.634276   7.222021   6.145022   3.819354
    24  C    4.900038   8.095739   7.990947   6.292470   3.837403
    25  H    4.812551   7.849608   7.113274   4.994023   2.816903
    26  C    4.670271   7.806779   8.129956   6.766331   4.315716
    27  H    5.955591   9.109445   8.894382   7.092667   4.718411
    28  H    5.620505   8.654114   9.114780   7.824693   5.397504
    29  B    2.602657   2.694755   4.678665   5.422953   5.098712
    30  N    3.987730   6.666779   7.711096   7.024099   4.923500
    31  C    4.220860   6.774426   8.000448   7.428095   5.310271
    32  H    5.047441   7.768837   8.871164   8.098320   5.750709
    33  H    4.769713   6.864406   8.382356   8.098451   6.202041
    34  H    3.471508   6.043224   7.207976   6.664730   4.655486
    35  C    5.336858   7.813490   8.938334   8.284945   6.194383
    36  H    5.751280   7.862671   9.256115   8.867707   6.950344
    37  H    6.093505   8.764678   9.798938   8.963127   6.652656
    38  H    5.524655   7.917927   8.911417   8.230327   6.272115
    39  F    3.103182   4.014862   5.897621   6.316214   5.416126
    40  F    3.784660   2.497926   4.885834   6.158505   6.276542
                   11         12         13         14         15
    11  O    0.000000
    12  C    4.258340   0.000000
    13  H    4.856457   1.091497   0.000000
    14  H    4.854226   1.091902   1.748304   0.000000
    15  H    4.541179   1.092915   1.774111   1.775418   0.000000
    16  C    3.256373   2.500199   2.729919   2.727425   3.473187
    17  H    3.991277   2.734267   3.065661   2.505210   3.747396
    18  H    3.991225   2.736692   2.510901   3.065957   3.749947
    19  H    2.728233   3.466051   3.742070   3.739156   4.337425
    20  C    2.398855   2.537271   2.797707   3.483796   2.815948
    21  C    1.377576   3.790836   4.162530   4.628596   4.009962
    22  C    3.657250   2.935908   2.756818   4.008075   3.023003
    23  C    2.371562   4.980927   5.192802   5.907652   5.090472
    24  C    4.125404   4.313656   4.095994   5.390269   4.295923
    25  H    4.545816   2.592898   2.110791   3.631897   2.647349
    26  C    3.631771   5.156963   5.129100   6.192601   5.172850
    27  H    5.209179   4.946237   4.556310   6.021749   4.853837
    28  H    4.513905   6.208541   6.128451   7.255815   6.181159
    29  B    2.897010   6.381775   7.238473   6.668356   6.494632
    30  N    2.733164   6.208654   6.511509   7.062272   6.315487
    31  C    2.918676   6.742309   7.034072   7.475236   7.050635
    32  H    3.707284   7.134474   7.269898   7.893801   7.523877
    33  H    3.595381   7.655800   8.022784   8.349998   7.917937
    34  H    2.243963   6.153388   6.512721   6.776557   6.563368
    35  C    4.145893   7.362134   7.590755   8.285369   7.355193
    36  H    4.616240   8.189576   8.499134   9.060360   8.181021
    37  H    4.819835   7.783854   7.868268   8.738078   7.848644
    38  H    4.479439   7.284128   7.523116   8.251815   7.120527
    39  F    2.774707   6.833014   7.554234   7.252695   7.018195
    40  F    4.224714   7.462340   8.382897   7.655541   7.503113
                   16         17         18         19         20
    16  C    0.000000
    17  H    1.093741   0.000000
    18  H    1.093443   1.778209   0.000000
    19  H    1.092400   1.772097   1.771046   0.000000
    20  C    2.489664   3.448649   2.739761   2.727526   0.000000
    21  C    3.163750   4.124432   3.581749   2.899580   1.388705
    22  C    3.437853   4.394270   3.271847   3.823838   1.395112
    23  C    4.403139   5.424728   4.619347   4.046850   2.456723
    24  C    4.580197   5.610102   4.357406   4.741071   2.408822
    25  H    3.639613   4.449435   3.305530   4.275847   2.154856
    26  C    4.965875   6.034440   4.915069   4.825159   2.793619
    27  H    5.432558   6.433934   5.063289   5.677385   3.390885
    28  H    5.998919   7.077532   5.893390   5.799128   3.875553
    29  B    5.524227   5.832968   6.485089   4.929569   5.129956
    30  N    5.379665   6.337868   5.703946   4.801907   3.727255
    31  C    5.372122   6.258318   5.710580   4.556480   4.353012
    32  H    5.627651   6.557638   5.773160   4.806905   4.727145
    33  H    6.288001   7.105753   6.707475   5.424643   5.312374
    34  H    4.569066   5.368332   5.020724   3.670486   3.963671
    35  C    6.726725   7.719519   6.953037   6.195073   4.867394
    36  H    7.443774   8.383407   7.760197   6.818169   5.726329
    37  H    7.040145   8.078346   7.108734   6.503452   5.259322
    38  H    7.025051   8.017861   7.250935   6.638794   4.895978
    39  F    5.693120   6.172464   6.526824   4.930379   5.149172
    40  F    6.724230   6.916916   7.725012   6.159583   6.394818
                   21         22         23         24         25
    21  C    0.000000
    22  C    2.390574   0.000000
    23  C    1.407318   2.817722   0.000000
    24  C    2.749315   1.384976   2.426366   0.000000
    25  H    3.378599   1.082054   3.899646   2.136954   0.000000
    26  C    2.388042   2.411099   1.396748   1.389780   3.386536
    27  H    3.833397   2.142181   3.401688   1.084115   2.458298
    28  H    3.378319   3.383612   2.149252   2.137936   4.266851
    29  B    4.176615   6.396742   4.790532   6.813044   7.225543
    30  N    2.437230   4.221833   1.405011   3.728358   5.303834
    31  C    3.047842   5.038233   2.426056   4.705178   6.092044
    32  H    3.583922   5.216884   2.828360   4.751486   6.229691
    33  H    3.955072   6.042582   3.331523   5.674631   7.107824
    34  H    2.717827   4.885038   2.638817   4.854904   5.884944
    35  C    3.712922   5.054837   2.427377   4.211690   6.105226
    36  H    4.469016   6.053026   3.326706   5.281168   7.116290
    37  H    4.225288   5.255258   2.854097   4.246563   6.263785
    38  H    3.899215   4.920578   2.646080   4.000549   5.914500
    39  F    3.958543   6.328466   4.251946   6.523338   7.269118
    40  F    5.478735   7.649278   6.039413   8.061074   8.449812
                   26         27         28         29         30
    26  C    0.000000
    27  H    2.142102   0.000000
    28  H    1.082152   2.451115   0.000000
    29  B    6.131508   7.871959   6.812732   0.000000
    30  N    2.462602   4.601182   2.709432   4.407892   0.000000
    31  C    3.531761   5.599452   3.780224   4.310870   1.459237
    32  H    3.608417   5.529529   3.700992   5.351044   2.125044
    33  H    4.430172   6.547287   4.546830   4.231745   2.087943
    34  H    3.896775   5.840554   4.393789   3.700939   2.104896
    35  C    2.833375   4.838388   2.505307   5.507093   1.449450
    36  H    3.907817   5.925792   3.584999   5.411517   2.071934
    37  H    2.896301   4.714620   2.281027   6.432628   2.140924
    38  H    2.743437   4.518750   2.337883   5.829780   2.095638
    39  F    5.633175   7.568534   6.180301   1.325984   3.564261
    40  F    7.360603   9.103756   7.989872   1.337629   5.548849
                   31         32         33         34         35
    31  C    0.000000
    32  H    1.102064   0.000000
    33  H    1.091843   1.781211   0.000000
    34  H    1.086651   1.784916   1.760733   0.000000
    35  C    2.408173   2.718701   2.619539   3.352275   0.000000
    36  H    2.603375   3.019699   2.336817   3.580477   1.092025
    37  H    2.747708   2.597424   3.055695   3.758382   1.103083
    38  H    3.355371   3.734627   3.596419   4.178321   1.091479
    39  F    3.221542   4.255718   2.977721   2.734282   4.594902
    40  F    5.440769   6.490919   5.172067   4.905231   6.498128
                   36         37         38         39         40
    36  H    0.000000
    37  H    1.773113   0.000000
    38  H    1.768081   1.783670   0.000000
    39  F    4.388333   5.454292   5.102409   0.000000
    40  F    6.243858   7.470049   6.770505   2.246013   0.000000
 Symmetry turned off by external request.
 Stoichiometry    C17H18BF2NO
 Framework group  C1[X(C17H18BF2NO)]
 Deg. of freedom   114
 Full point group                 C1      NOp   1
 Rotational constants (GHZ):           0.3516565           0.2917524           0.1756905
 General basis read from cards:  (5D, 7F)
 ======================================================================================================
                                       Pseudopotential Parameters
 ======================================================================================================
  Center     Atomic      Valence      Angular      Power
  Number     Number     Electrons     Momentum     of R      Exponent        Coefficient   SO-Coeffient
 ======================================================================================================
    1          6
                                   No pseudopotential on this center.
    2          6
                                   No pseudopotential on this center.
    3          6
                                   No pseudopotential on this center.
    4          6
                                   No pseudopotential on this center.
    5          6
                                   No pseudopotential on this center.
    6          6
                                   No pseudopotential on this center.
    7          1
                                   No pseudopotential on this center.
    8          1
                                   No pseudopotential on this center.
    9          1
                                   No pseudopotential on this center.
   10          6
                                   No pseudopotential on this center.
   11          8
                                   No pseudopotential on this center.
   12          6
                                   No pseudopotential on this center.
   13          1
                                   No pseudopotential on this center.
   14          1
                                   No pseudopotential on this center.
   15          1
                                   No pseudopotential on this center.
   16          6
                                   No pseudopotential on this center.
   17          1
                                   No pseudopotential on this center.
   18          1
                                   No pseudopotential on this center.
   19          1
                                   No pseudopotential on this center.
   20          6
                                   No pseudopotential on this center.
   21          6
                                   No pseudopotential on this center.
   22          6
                                   No pseudopotential on this center.
   23          6
                                   No pseudopotential on this center.
   24          6
                                   No pseudopotential on this center.
   25          1
                                   No pseudopotential on this center.
   26          6
                                   No pseudopotential on this center.
   27          1
                                   No pseudopotential on this center.
   28          1
                                   No pseudopotential on this center.
   29          5
                                   No pseudopotential on this center.
   30          7
                                   No pseudopotential on this center.
   31          6
                                   No pseudopotential on this center.
   32          1
                                   No pseudopotential on this center.
   33          1
                                   No pseudopotential on this center.
   34          1
                                   No pseudopotential on this center.
   35          6
                                   No pseudopotential on this center.
   36          1
                                   No pseudopotential on this center.
   37          1
                                   No pseudopotential on this center.
   38          1
                                   No pseudopotential on this center.
   39          9
                                   No pseudopotential on this center.
   40          9
                                   No pseudopotential on this center.
 ======================================================================================================
   610 basis functions,   954 primitive gaussians,   632 cartesian basis functions
    79 alpha electrons       79 beta electrons
       nuclear repulsion energy      1844.4164802036 Hartrees.
 NAtoms=   40 NActive=   40 NUniq=   40 SFac= 1.00D+00 NAtFMM=   60 NAOKFM=F Big=F
 Integral buffers will be    131072 words long.
 Raffenetti 2 integral format.
 Two-electron integral symmetry is turned off.
 Nuclear repulsion after empirical dispersion term =     1844.3818893888 Hartrees.
 ------------------------------------------------------------------------------
 Polarizable Continuum Model (PCM)
 =================================
 Model                : PCM.
 Atomic radii         : UFF (Universal Force Field).
 Polarization charges : Total charges.
 Charge compensation  : None.
 Solution method      : On-the-fly selection.
 Cavity type          : Scaled VdW (van der Waals Surface) (Alpha=1.100).
 Cavity algorithm     : GePol (No added spheres)
                        Default sphere list used, NSphG=   40.
                        Lebedev-Laikov grids with approx.  5.0 points / Ang**2.
                        Smoothing algorithm: York/Karplus (Gamma=1.0000).
                        Polarization charges: spherical gaussians, with
                                              point-specific exponents (IZeta= 3).
                        Self-potential: point-specific (ISelfS= 7).
                        Self-field    : sphere-specific E.n sum rule (ISelfD= 2).
 Solvent              : Toluene, Eps=   2.374100 Eps(inf)=   2.238315
 ------------------------------------------------------------------------------
 One-electron integrals computed using PRISM.
   1 Symmetry operations used in ECPInt.
 ECPInt:  NShTT=   24753 NPrTT=   85528 LenC2=   22508 LenP2D=   53293.
 LDataN:  DoStor=T MaxTD1= 4 Len=   56
 Number of processors reduced to  76 by ecpmxn.
 NBasis=   610 RedAO= T EigKep=  1.80D-06  NBF=   610
 NBsUse=   603 1.00D-06 EigRej=  8.54D-07 NBFU=   603
 ExpMin= 3.15D-02 ExpMax= 1.14D+04 ExpMxC= 1.72D+03 IAcc=3 IRadAn=         5 AccDes= 0.00D+00
 Harris functional with IExCor= 4639 and IRadAn=       5 diagonalized for initial guess.
 HarFok:  IExCor= 4639 AccDes= 0.00D+00 IRadAn=         5 IDoV= 1 UseB2=F ITyADJ=14
 ICtDFT=  3500011 ScaDFX=  1.000000  1.000000  1.000000  1.000000
 FoFCou: FMM=F IPFlag=           0 FMFlag=      100000 FMFlg1=           0
         NFxFlg=           0 DoJE=T BraDBF=F KetDBF=T FulRan=T
         wScrn=  0.000000 ICntrl=       500 IOpCl=  0 I1Cent=   200000004 NGrid=           0
         NMat0=    1 NMatS0=      1 NMatT0=    0 NMatD0=    1 NMtDS0=    0 NMtDT0=    0
 Symmetry not used in FoFCou.
 Requested convergence on RMS density matrix=1.00D-08 within 300 cycles.
 Requested convergence on MAX density matrix=1.00D-06.
 Requested convergence on             energy=1.00D-06.
 No special actions if energy rises.
 Inv3:  Mode=1 IEnd=    23469627.
 Iteration    1 A*A^-1 deviation from unit magnitude is 5.44D-15 for   2785.
 Iteration    1 A*A^-1 deviation from orthogonality  is 2.88D-15 for   2795   2670.
 Iteration    1 A^-1*A deviation from unit magnitude is 5.22D-15 for   2785.
 Iteration    1 A^-1*A deviation from orthogonality  is 2.98D-15 for   2010   1500.
 Error on total polarization charges =  0.00972
 SCF Done:  E(RwB97XD) =  -1013.24312794     A.U. after   16 cycles
            NFock= 16  Conv=0.39D-08     -V/T= 2.0039

 **********************************************************************

            Population analysis using the SCF Density.

 **********************************************************************

 Alpha  occ. eigenvalues --  -24.81710 -24.81649 -19.30113 -14.44086 -10.36779
 Alpha  occ. eigenvalues --  -10.34988 -10.32885 -10.32274 -10.30740 -10.30565
 Alpha  occ. eigenvalues --  -10.30448 -10.30333 -10.30161 -10.29663 -10.29413
 Alpha  occ. eigenvalues --  -10.29055 -10.28782 -10.28621 -10.28609 -10.28071
 Alpha  occ. eigenvalues --  -10.27903  -6.95728  -1.33990  -1.30843  -1.20737
 Alpha  occ. eigenvalues --   -1.04638  -0.98144  -0.96863  -0.92575  -0.87708
 Alpha  occ. eigenvalues --   -0.85928  -0.84364  -0.83148  -0.80914  -0.79584
 Alpha  occ. eigenvalues --   -0.75906  -0.74575  -0.73535  -0.70544  -0.67668
 Alpha  occ. eigenvalues --   -0.66754  -0.65346  -0.65141  -0.62282  -0.60870
 Alpha  occ. eigenvalues --   -0.59074  -0.58203  -0.58126  -0.57079  -0.56897
 Alpha  occ. eigenvalues --   -0.56163  -0.55273  -0.54665  -0.53977  -0.53539
 Alpha  occ. eigenvalues --   -0.52386  -0.51622  -0.50472  -0.50294  -0.49687
 Alpha  occ. eigenvalues --   -0.48676  -0.48276  -0.47996  -0.47608  -0.47152
 Alpha  occ. eigenvalues --   -0.46155  -0.45831  -0.45380  -0.44763  -0.44410
 Alpha  occ. eigenvalues --   -0.44251  -0.43013  -0.41524  -0.39855  -0.35866
 Alpha  occ. eigenvalues --   -0.34772  -0.33373  -0.30837  -0.27768
 Alpha virt. eigenvalues --    0.00898   0.03788   0.04420   0.04790   0.04852
 Alpha virt. eigenvalues --    0.05304   0.05703   0.05983   0.06280   0.06747
 Alpha virt. eigenvalues --    0.06814   0.06925   0.07518   0.07773   0.08302
 Alpha virt. eigenvalues --    0.08993   0.09073   0.09423   0.09871   0.10202
 Alpha virt. eigenvalues --    0.10531   0.11101   0.11551   0.11927   0.12564
 Alpha virt. eigenvalues --    0.13183   0.13433   0.13683   0.14145   0.14399
 Alpha virt. eigenvalues --    0.15112   0.15674   0.15778   0.15870   0.16584
 Alpha virt. eigenvalues --    0.16724   0.16858   0.17164   0.17630   0.17982
 Alpha virt. eigenvalues --    0.18041   0.18375   0.18502   0.18788   0.19198
 Alpha virt. eigenvalues --    0.19261   0.19530   0.19599   0.20106   0.20180
 Alpha virt. eigenvalues --    0.20495   0.20782   0.21143   0.21350   0.21423
 Alpha virt. eigenvalues --    0.21578   0.22050   0.22640   0.22818   0.23102
 Alpha virt. eigenvalues --    0.23207   0.23709   0.23771   0.23850   0.24037
 Alpha virt. eigenvalues --    0.24671   0.24771   0.25157   0.25359   0.25617
 Alpha virt. eigenvalues --    0.26126   0.26246   0.26613   0.26966   0.27331
 Alpha virt. eigenvalues --    0.27490   0.27876   0.28232   0.28744   0.28802
 Alpha virt. eigenvalues --    0.29432   0.29984   0.30125   0.30335   0.30948
 Alpha virt. eigenvalues --    0.31151   0.31350   0.31696   0.31810   0.32346
 Alpha virt. eigenvalues --    0.32542   0.33065   0.33493   0.33802   0.34208
 Alpha virt. eigenvalues --    0.34501   0.35066   0.35212   0.35875   0.35936
 Alpha virt. eigenvalues --    0.36369   0.36428   0.36959   0.37159   0.37632
 Alpha virt. eigenvalues --    0.37860   0.38225   0.38364   0.38536   0.38946
 Alpha virt. eigenvalues --    0.39395   0.39616   0.40260   0.40703   0.40882
 Alpha virt. eigenvalues --    0.41070   0.41721   0.41777   0.42393   0.42783
 Alpha virt. eigenvalues --    0.43156   0.43624   0.44001   0.44570   0.44820
 Alpha virt. eigenvalues --    0.44955   0.45132   0.45677   0.46616   0.47236
 Alpha virt. eigenvalues --    0.48083   0.48409   0.49107   0.49180   0.49989
 Alpha virt. eigenvalues --    0.51221   0.51985   0.52248   0.52627   0.53418
 Alpha virt. eigenvalues --    0.54691   0.55886   0.57263   0.58869   0.59107
 Alpha virt. eigenvalues --    0.59375   0.60476   0.60562   0.61250   0.61341
 Alpha virt. eigenvalues --    0.62055   0.62296   0.63478   0.64017   0.64445
 Alpha virt. eigenvalues --    0.65060   0.65248   0.65900   0.66295   0.66966
 Alpha virt. eigenvalues --    0.67144   0.67504   0.68230   0.68561   0.69143
 Alpha virt. eigenvalues --    0.70252   0.70662   0.71138   0.71414   0.72159
 Alpha virt. eigenvalues --    0.72749   0.73177   0.73547   0.73635   0.74705
 Alpha virt. eigenvalues --    0.75701   0.75868   0.76381   0.76565   0.76970
 Alpha virt. eigenvalues --    0.77866   0.78216   0.78965   0.79711   0.80058
 Alpha virt. eigenvalues --    0.80305   0.81118   0.81600   0.81967   0.83025
 Alpha virt. eigenvalues --    0.83576   0.84075   0.84321   0.84971   0.85939
 Alpha virt. eigenvalues --    0.86227   0.86794   0.87630   0.87869   0.88740
 Alpha virt. eigenvalues --    0.88796   0.89817   0.90361   0.90764   0.91191
 Alpha virt. eigenvalues --    0.92193   0.92735   0.93170   0.95330   0.96147
 Alpha virt. eigenvalues --    0.96671   0.97202   0.97741   0.97828   0.98907
 Alpha virt. eigenvalues --    0.99507   1.00150   1.00843   1.01231   1.02089
 Alpha virt. eigenvalues --    1.02865   1.03306   1.03410   1.04402   1.05539
 Alpha virt. eigenvalues --    1.06807   1.06943   1.07480   1.09220   1.10186
 Alpha virt. eigenvalues --    1.10523   1.11086   1.12116   1.12480   1.14090
 Alpha virt. eigenvalues --    1.14546   1.16515   1.17875   1.18166   1.19646
 Alpha virt. eigenvalues --    1.19902   1.21296   1.21459   1.23437   1.24064
 Alpha virt. eigenvalues --    1.25071   1.26225   1.29879   1.31954   1.33821
 Alpha virt. eigenvalues --    1.34427   1.35412   1.37088   1.38293   1.38591
 Alpha virt. eigenvalues --    1.39688   1.40846   1.41697   1.42794   1.43400
 Alpha virt. eigenvalues --    1.45650   1.45963   1.46820   1.47946   1.49369
 Alpha virt. eigenvalues --    1.50042   1.51434   1.53413   1.53674   1.54394
 Alpha virt. eigenvalues --    1.54429   1.54610   1.56693   1.57853   1.58263
 Alpha virt. eigenvalues --    1.59109   1.59734   1.60078   1.61020   1.61392
 Alpha virt. eigenvalues --    1.62437   1.62957   1.63239   1.64289   1.64654
 Alpha virt. eigenvalues --    1.64889   1.66005   1.67112   1.68239   1.68272
 Alpha virt. eigenvalues --    1.68542   1.69285   1.69765   1.71017   1.71553
 Alpha virt. eigenvalues --    1.73032   1.73393   1.73613   1.74179   1.74567
 Alpha virt. eigenvalues --    1.76221   1.76369   1.78506   1.79054   1.79772
 Alpha virt. eigenvalues --    1.79812   1.80907   1.82621   1.82901   1.83871
 Alpha virt. eigenvalues --    1.84572   1.84960   1.85300   1.85717   1.87412
 Alpha virt. eigenvalues --    1.87941   1.89352   1.90568   1.92201   1.92530
 Alpha virt. eigenvalues --    1.93431   1.94903   1.95137   1.96503   1.97363
 Alpha virt. eigenvalues --    1.97538   1.99463   2.00760   2.01667   2.02594
 Alpha virt. eigenvalues --    2.02873   2.03752   2.04445   2.04708   2.06180
 Alpha virt. eigenvalues --    2.06802   2.08035   2.08702   2.09937   2.10329
 Alpha virt. eigenvalues --    2.10841   2.11991   2.13218   2.13545   2.14255
 Alpha virt. eigenvalues --    2.15944   2.17290   2.17925   2.19089   2.21109
 Alpha virt. eigenvalues --    2.22459   2.22549   2.24518   2.25231   2.26380
 Alpha virt. eigenvalues --    2.27654   2.30752   2.31258   2.31724   2.33617
 Alpha virt. eigenvalues --    2.34017   2.36281   2.36806   2.38917   2.39418
 Alpha virt. eigenvalues --    2.42642   2.44602   2.45274   2.47441   2.50316
 Alpha virt. eigenvalues --    2.53547   2.53987   2.54652   2.55100   2.56507
 Alpha virt. eigenvalues --    2.57057   2.59135   2.59736   2.60737   2.61496
 Alpha virt. eigenvalues --    2.62207   2.63525   2.64194   2.65405   2.65990
 Alpha virt. eigenvalues --    2.66961   2.67671   2.68030   2.68948   2.71017
 Alpha virt. eigenvalues --    2.72015   2.73066   2.74007   2.76455   2.77809
 Alpha virt. eigenvalues --    2.78183   2.79772   2.79993   2.80756   2.81572
 Alpha virt. eigenvalues --    2.82524   2.83410   2.83757   2.85469   2.85915
 Alpha virt. eigenvalues --    2.86187   2.86707   2.88353   2.89256   2.90058
 Alpha virt. eigenvalues --    2.90690   2.91419   2.91898   2.92787   2.94180
 Alpha virt. eigenvalues --    2.94278   2.95636   2.97149   2.98167   2.98649
 Alpha virt. eigenvalues --    3.01972   3.03526   3.04922   3.05274   3.06755
 Alpha virt. eigenvalues --    3.07879   3.09337   3.12676   3.14247   3.16744
 Alpha virt. eigenvalues --    3.18758   3.21364   3.22585   3.24302   3.26276
 Alpha virt. eigenvalues --    3.28318   3.29790   3.34391   3.35829   3.37113
 Alpha virt. eigenvalues --    3.37803   3.39688   3.40307   3.43442   3.48630
 Alpha virt. eigenvalues --    3.52113   3.53803   3.55398   3.58599   3.60685
 Alpha virt. eigenvalues --    3.64281   3.65754   3.67349   3.68815   3.74632
 Alpha virt. eigenvalues --    3.81405   3.82364   3.85142   3.86518   3.87722
 Alpha virt. eigenvalues --    3.87763   3.89260   3.89838   3.91077   3.91575
 Alpha virt. eigenvalues --    3.92962   3.93600   3.94707   3.95257   3.95936
 Alpha virt. eigenvalues --    3.97786   4.05683   4.07511   4.09815   4.10822
 Alpha virt. eigenvalues --    4.11833   4.15404   4.16133   4.24925   4.25452
 Alpha virt. eigenvalues --    4.32077   4.35163   4.37624   4.40354   4.42658
 Alpha virt. eigenvalues --    4.51879   4.55023   4.65983   4.71144   4.94667
 Alpha virt. eigenvalues --    4.96247   4.99759   5.13752   5.25873   5.60670
 Alpha virt. eigenvalues --    6.04921   6.41522   6.43070   6.48091   6.56224
 Alpha virt. eigenvalues --    6.56940   6.81920  14.79338  23.70770  23.76352
 Alpha virt. eigenvalues --   23.98027  24.07979  24.08580  24.09042  24.10507
 Alpha virt. eigenvalues --   24.11140  24.11822  24.12238  24.14921  24.19458
 Alpha virt. eigenvalues --   24.21026  24.22029  24.24387  24.32052  24.34046
 Alpha virt. eigenvalues --   35.75246  50.15063  66.95289  66.97351
          Condensed to atoms (all electrons):
               1          2          3          4          5          6
     1  C    9.880599  -2.102235  -1.247242   0.284073  -0.593043   0.702720
     2  C   -2.102235  11.487380  -0.703611  -2.402393   1.479339  -2.463419
     3  C   -1.247242  -0.703611   9.270854   0.976366  -2.423549   0.439485
     4  C    0.284073  -2.402393   0.976366   7.931384  -0.920496   0.854004
     5  C   -0.593043   1.479339  -2.423549  -0.920496  10.530147   0.043437
     6  C    0.702720  -2.463419   0.439485   0.854004   0.043437   8.119001
     7  H   -0.133787   0.435080  -0.009531  -0.016491   0.037780  -0.004729
     8  H    0.026176   0.021363   0.342922  -0.076380   0.027396  -0.007265
     9  H    0.010835  -0.047336  -0.094094   0.420588  -0.039624   0.007291
    10  C   -0.520068   0.010030  -0.242795  -0.389157   0.022324  -0.229070
    11  O   -0.186275   0.021206  -0.018023   0.044268  -0.167400   0.185820
    12  C   -0.007313  -0.041762  -0.081207   0.044675  -0.459871  -0.374022
    13  H   -0.002084  -0.001695  -0.016715  -0.015718   0.081238   0.002783
    14  H   -0.003052   0.006412   0.020687   0.050256  -0.102645  -0.008054
    15  H   -0.001508   0.000737   0.009188  -0.005370  -0.019100   0.001798
    16  C    0.022889   0.003331   0.008736   0.081636   0.148429   0.089602
    17  H   -0.003666  -0.003665  -0.013405  -0.032069  -0.026846  -0.001395
    18  H    0.001092   0.004878   0.004764   0.016438   0.051436   0.018938
    19  H    0.002382   0.010731  -0.000553  -0.008858  -0.032075  -0.007045
    20  C   -0.219976   0.352969   0.162864   0.065317  -1.709558  -0.718841
    21  C    0.201131   0.220846   0.222041  -0.198257  -0.623829  -0.927661
    22  C    0.316314   0.132205  -0.091307  -0.679409   0.256863  -0.269584
    23  C   -0.247986  -0.203395   0.056147   0.081479  -0.358130   0.156914
    24  C    0.008279  -0.006293  -0.020217  -0.046782   0.173378   0.242452
    25  H    0.001389   0.001221   0.002957  -0.000039   0.006159  -0.001958
    26  C   -0.284713  -0.097440   0.007910   0.119571   0.277052   0.108665
    27  H   -0.000242  -0.000129   0.000156   0.000703  -0.002370   0.004770
    28  H   -0.000979   0.000134  -0.000156  -0.000200  -0.000526  -0.003108
    29  B    0.440421  -0.025561   0.111198   0.055104  -0.023241  -0.065827
    30  N    0.031878   0.021158  -0.013569  -0.013745  -0.033624  -0.020655
    31  C    0.020131   0.002091   0.000296  -0.003476   0.006403   0.052331
    32  H   -0.005607  -0.003165   0.000067   0.001632   0.001225   0.005499
    33  H    0.004345   0.006664  -0.000698  -0.001655  -0.000888  -0.000946
    34  H   -0.013889  -0.009813  -0.004000   0.001994   0.011617  -0.002908
    35  C    0.005213   0.004802  -0.002002  -0.006809  -0.025824  -0.019454
    36  H    0.001206   0.000357   0.000239  -0.000350  -0.000549  -0.003813
    37  H   -0.000227  -0.000268   0.000048   0.000171   0.000618  -0.000446
    38  H   -0.001276  -0.000268  -0.000116  -0.000168  -0.000479  -0.000043
    39  F   -0.061258   0.162996   0.018264  -0.005194   0.000742  -0.096265
    40  F    0.063135  -0.139492   0.013405   0.018047   0.010402   0.071461
               7          8          9         10         11         12
     1  C   -0.133787   0.026176   0.010835  -0.520068  -0.186275  -0.007313
     2  C    0.435080   0.021363  -0.047336   0.010030   0.021206  -0.041762
     3  C   -0.009531   0.342922  -0.094094  -0.242795  -0.018023  -0.081207
     4  C   -0.016491  -0.076380   0.420588  -0.389157   0.044268   0.044675
     5  C    0.037780   0.027396  -0.039624   0.022324  -0.167400  -0.459871
     6  C   -0.004729  -0.007265   0.007291  -0.229070   0.185820  -0.374022
     7  H    0.471264  -0.005171   0.002393   0.015651   0.000145  -0.000084
     8  H   -0.005171   0.443540  -0.011287  -0.006644   0.000015  -0.000488
     9  H    0.002393  -0.011287   0.504931   0.033776   0.000476   0.027182
    10  C    0.015651  -0.006644   0.033776  10.111290   0.052633  -0.223163
    11  O    0.000145   0.000015   0.000476   0.052633   8.285539  -0.008605
    12  C   -0.000084  -0.000488   0.027182  -0.223163  -0.008605   7.731370
    13  H    0.000076  -0.000203   0.004836  -0.015329  -0.000270   0.412884
    14  H   -0.000481   0.000244   0.003077   0.018868  -0.000358   0.359080
    15  H   -0.000178   0.000346  -0.007904  -0.013985  -0.001476   0.417395
    16  C    0.000680   0.000396   0.000944  -0.622127  -0.004950  -0.580117
    17  H    0.000180  -0.000619   0.000950   0.009153  -0.002850  -0.030265
    18  H    0.000008   0.000046  -0.001723   0.012325  -0.002237  -0.059314
    19  H    0.000414   0.000106   0.000265   0.073096   0.010143   0.090620
    20  C    0.001828   0.001440   0.007686   0.469505  -0.161479   0.061282
    21  C    0.001581  -0.002173  -0.002253  -0.693998   0.153676  -0.418020
    22  C   -0.000541   0.001860  -0.000937  -1.326993  -0.023353  -0.344187
    23  C   -0.000055   0.000183   0.001048  -0.474811  -0.201842  -0.002142
    24  C   -0.000537   0.000848   0.000306  -0.516445   0.028735  -0.249246
    25  H    0.000047  -0.000067   0.000058   0.011804  -0.003030   0.011473
    26  C   -0.000189  -0.000465  -0.000110   0.626955   0.108506   0.144587
    27  H   -0.000009   0.000014  -0.000007  -0.011146   0.000960  -0.006284
    28  H    0.000019  -0.000011   0.000019   0.021847  -0.001797   0.004742
    29  B   -0.032669   0.001644  -0.000393  -0.023400  -0.017563  -0.002802
    30  N    0.000255  -0.000097   0.000142   0.026735   0.023504   0.009791
    31  C   -0.000617   0.000071  -0.000110  -0.036475  -0.038616  -0.003572
    32  H   -0.000020  -0.000002   0.000014   0.007635   0.001855   0.000885
    33  H    0.000053  -0.000006   0.000037  -0.008137  -0.000761  -0.000693
    34  H   -0.000433   0.000041  -0.000334  -0.028651   0.003316  -0.006093
    35  C    0.000098  -0.000005   0.000058   0.024168  -0.021307   0.010024
    36  H   -0.000011   0.000006  -0.000017   0.001710  -0.002344   0.000485
    37  H   -0.000013   0.000001   0.000008  -0.002148   0.001955  -0.000539
    38  H    0.000033  -0.000001   0.000010  -0.000616  -0.000661   0.000018
    39  F    0.000558  -0.000001   0.000053   0.003381   0.005480  -0.000092
    40  F    0.005248  -0.000545   0.000409   0.004333  -0.003061   0.000471
              13         14         15         16         17         18
     1  C   -0.002084  -0.003052  -0.001508   0.022889  -0.003666   0.001092
     2  C   -0.001695   0.006412   0.000737   0.003331  -0.003665   0.004878
     3  C   -0.016715   0.020687   0.009188   0.008736  -0.013405   0.004764
     4  C   -0.015718   0.050256  -0.005370   0.081636  -0.032069   0.016438
     5  C    0.081238  -0.102645  -0.019100   0.148429  -0.026846   0.051436
     6  C    0.002783  -0.008054   0.001798   0.089602  -0.001395   0.018938
     7  H    0.000076  -0.000481  -0.000178   0.000680   0.000180   0.000008
     8  H   -0.000203   0.000244   0.000346   0.000396  -0.000619   0.000046
     9  H    0.004836   0.003077  -0.007904   0.000944   0.000950  -0.001723
    10  C   -0.015329   0.018868  -0.013985  -0.622127   0.009153   0.012325
    11  O   -0.000270  -0.000358  -0.001476  -0.004950  -0.002850  -0.002237
    12  C    0.412884   0.359080   0.417395  -0.580117  -0.030265  -0.059314
    13  H    0.532606  -0.042381  -0.017419  -0.031180   0.007261  -0.010869
    14  H   -0.042381   0.544675  -0.020887  -0.016094  -0.009644   0.006646
    15  H   -0.017419  -0.020887   0.459899   0.005385   0.000105   0.000598
    16  C   -0.031180  -0.016094   0.005385   6.533082   0.340173   0.362985
    17  H    0.007261  -0.009644   0.000105   0.340173   0.516769  -0.026527
    18  H   -0.010869   0.006646   0.000598   0.362985  -0.026527   0.511666
    19  H    0.000769   0.002753  -0.004566   0.334814  -0.028482  -0.028361
    20  C   -0.086979   0.077130  -0.014287  -0.088357   0.068534  -0.010343
    21  C   -0.024749   0.008879   0.009343   0.025500   0.017250   0.008197
    22  C    0.027013  -0.048289   0.003599   0.051823   0.031591  -0.027830
    23  C   -0.010426  -0.005511   0.003947  -0.022975   0.000887   0.004273
    24  C    0.017504  -0.014506   0.005745   0.186844   0.003935  -0.019769
    25  H    0.004785   0.002683  -0.006924  -0.002994  -0.000503   0.000726
    26  C    0.011704   0.002298  -0.003953  -0.074265   0.002635  -0.006359
    27  H    0.000459  -0.000214   0.000232   0.001819   0.000025  -0.000364
    28  H   -0.000143   0.000066  -0.000221  -0.002899   0.000021  -0.000178
    29  B   -0.000461   0.000328  -0.000039  -0.001071   0.000039   0.000230
    30  N   -0.000135   0.000805  -0.000140   0.018780  -0.001195  -0.000668
    31  C   -0.000357   0.000173   0.000230   0.002419  -0.000748   0.001453
    32  H    0.000007  -0.000023  -0.000019  -0.003505  -0.000005   0.000098
    33  H   -0.000045   0.000024  -0.000005   0.002314  -0.000084   0.000215
    34  H    0.000378   0.000101   0.000274   0.019103   0.000358  -0.000744
    35  C    0.000005  -0.000109   0.000050  -0.009240   0.000011  -0.000322
    36  H    0.000006  -0.000010   0.000003  -0.000999   0.000021  -0.000041
    37  H   -0.000023  -0.000006   0.000014   0.000553  -0.000009   0.000066
    38  H    0.000059  -0.000016   0.000006   0.000554   0.000007  -0.000041
    39  F   -0.000000  -0.000019  -0.000034  -0.000460  -0.000011   0.000104
    40  F   -0.000000  -0.000002  -0.000009  -0.000213   0.000008  -0.000025
              19         20         21         22         23         24
     1  C    0.002382  -0.219976   0.201131   0.316314  -0.247986   0.008279
     2  C    0.010731   0.352969   0.220846   0.132205  -0.203395  -0.006293
     3  C   -0.000553   0.162864   0.222041  -0.091307   0.056147  -0.020217
     4  C   -0.008858   0.065317  -0.198257  -0.679409   0.081479  -0.046782
     5  C   -0.032075  -1.709558  -0.623829   0.256863  -0.358130   0.173378
     6  C   -0.007045  -0.718841  -0.927661  -0.269584   0.156914   0.242452
     7  H    0.000414   0.001828   0.001581  -0.000541  -0.000055  -0.000537
     8  H    0.000106   0.001440  -0.002173   0.001860   0.000183   0.000848
     9  H    0.000265   0.007686  -0.002253  -0.000937   0.001048   0.000306
    10  C    0.073096   0.469505  -0.693998  -1.326993  -0.474811  -0.516445
    11  O    0.010143  -0.161479   0.153676  -0.023353  -0.201842   0.028735
    12  C    0.090620   0.061282  -0.418020  -0.344187  -0.002142  -0.249246
    13  H    0.000769  -0.086979  -0.024749   0.027013  -0.010426   0.017504
    14  H    0.002753   0.077130   0.008879  -0.048289  -0.005511  -0.014506
    15  H   -0.004566  -0.014287   0.009343   0.003599   0.003947   0.005745
    16  C    0.334814  -0.088357   0.025500   0.051823  -0.022975   0.186844
    17  H   -0.028482   0.068534   0.017250   0.031591   0.000887   0.003935
    18  H   -0.028361  -0.010343   0.008197  -0.027830   0.004273  -0.019769
    19  H    0.526258  -0.061785  -0.017916  -0.012941  -0.013887  -0.016774
    20  C   -0.061785  13.131050  -0.387157  -3.104084  -2.703698  -2.342350
    21  C   -0.017916  -0.387157   7.803135   1.143098   1.648581   0.249106
    22  C   -0.012941  -3.104084   1.143098  10.114893   1.688890   1.360467
    23  C   -0.013887  -2.703698   1.648581   1.688890  12.944859  -1.411439
    24  C   -0.016774  -2.342350   0.249106   1.360467  -1.411439   8.950837
    25  H    0.001084  -0.039826   0.013166   0.438199   0.033372  -0.070782
    26  C    0.005386   2.779648  -2.320173  -3.339192  -4.554974  -0.055988
    27  H   -0.000358  -0.026218   0.030197  -0.073361   0.024593   0.409695
    28  H    0.000970   0.087678  -0.019830  -0.031316  -0.140487  -0.098908
    29  B   -0.003486  -0.027329   0.007664   0.003946  -0.015264  -0.002217
    30  N    0.001583  -0.069694  -0.069586   0.086216  -0.155952   0.049531
    31  C   -0.004668  -0.044873  -0.081356   0.028705  -0.099731   0.032054
    32  H    0.001201  -0.002012   0.024419   0.000618   0.010895  -0.010203
    33  H   -0.001390  -0.005433  -0.009519   0.009179   0.014526   0.008911
    34  H   -0.011771   0.036556  -0.035263  -0.030260  -0.034442   0.022388
    35  C    0.002986  -0.096915   0.173605   0.029161   0.263337  -0.319639
    36  H    0.000294   0.002573  -0.001422  -0.004817   0.018091  -0.015748
    37  H   -0.000387  -0.010914   0.004592   0.010713  -0.000213   0.039133
    38  H    0.000093  -0.005278   0.006977  -0.005326  -0.024263  -0.010978
    39  F   -0.000277   0.011731  -0.031481  -0.000126  -0.013458   0.000800
    40  F    0.000274  -0.002893  -0.012791  -0.000376   0.003118   0.000092
              25         26         27         28         29         30
     1  C    0.001389  -0.284713  -0.000242  -0.000979   0.440421   0.031878
     2  C    0.001221  -0.097440  -0.000129   0.000134  -0.025561   0.021158
     3  C    0.002957   0.007910   0.000156  -0.000156   0.111198  -0.013569
     4  C   -0.000039   0.119571   0.000703  -0.000200   0.055104  -0.013745
     5  C    0.006159   0.277052  -0.002370  -0.000526  -0.023241  -0.033624
     6  C   -0.001958   0.108665   0.004770  -0.003108  -0.065827  -0.020655
     7  H    0.000047  -0.000189  -0.000009   0.000019  -0.032669   0.000255
     8  H   -0.000067  -0.000465   0.000014  -0.000011   0.001644  -0.000097
     9  H    0.000058  -0.000110  -0.000007   0.000019  -0.000393   0.000142
    10  C    0.011804   0.626955  -0.011146   0.021847  -0.023400   0.026735
    11  O   -0.003030   0.108506   0.000960  -0.001797  -0.017563   0.023504
    12  C    0.011473   0.144587  -0.006284   0.004742  -0.002802   0.009791
    13  H    0.004785   0.011704   0.000459  -0.000143  -0.000461  -0.000135
    14  H    0.002683   0.002298  -0.000214   0.000066   0.000328   0.000805
    15  H   -0.006924  -0.003953   0.000232  -0.000221  -0.000039  -0.000140
    16  C   -0.002994  -0.074265   0.001819  -0.002899  -0.001071   0.018780
    17  H   -0.000503   0.002635   0.000025   0.000021   0.000039  -0.001195
    18  H    0.000726  -0.006359  -0.000364  -0.000178   0.000230  -0.000668
    19  H    0.001084   0.005386  -0.000358   0.000970  -0.003486   0.001583
    20  C   -0.039826   2.779648  -0.026218   0.087678  -0.027329  -0.069694
    21  C    0.013166  -2.320173   0.030197  -0.019830   0.007664  -0.069586
    22  C    0.438199  -3.339192  -0.073361  -0.031316   0.003946   0.086216
    23  C    0.033372  -4.554974   0.024593  -0.140487  -0.015264  -0.155952
    24  C   -0.070782  -0.055988   0.409695  -0.098908  -0.002217   0.049531
    25  H    0.513421  -0.060805  -0.014566   0.001333   0.000333   0.003137
    26  C   -0.060805  13.336654  -0.039899   0.554165  -0.001534  -0.589382
    27  H   -0.014566  -0.039899   0.465622  -0.011463  -0.000149  -0.003424
    28  H    0.001333   0.554165  -0.011463   0.508509   0.000151  -0.032837
    29  B    0.000333  -0.001534  -0.000149   0.000151   3.578190   0.010315
    30  N    0.003137  -0.589382  -0.003424  -0.032837   0.010315   7.295017
    31  C    0.000816  -0.119782   0.000667  -0.007525  -0.001188   0.244297
    32  H    0.000103  -0.008370  -0.000654   0.001120   0.001136  -0.082878
    33  H    0.000141  -0.020826   0.000084  -0.001390   0.000348  -0.050040
    34  H   -0.000865   0.089384   0.000473  -0.000315  -0.006585  -0.048365
    35  C    0.000022  -0.555182   0.000823   0.004591  -0.004280   0.351229
    36  H   -0.000098   0.035587   0.000084   0.005801  -0.002018  -0.086247
    37  H    0.000064  -0.018666   0.000742  -0.011911   0.000462  -0.025145
    38  H   -0.000099   0.023170   0.000003  -0.008185  -0.000293  -0.062891
    39  F   -0.000016   0.003939  -0.000001   0.000088   0.395609   0.007655
    40  F   -0.000002   0.000085   0.000001  -0.000003   0.315670   0.000095
              31         32         33         34         35         36
     1  C    0.020131  -0.005607   0.004345  -0.013889   0.005213   0.001206
     2  C    0.002091  -0.003165   0.006664  -0.009813   0.004802   0.000357
     3  C    0.000296   0.000067  -0.000698  -0.004000  -0.002002   0.000239
     4  C   -0.003476   0.001632  -0.001655   0.001994  -0.006809  -0.000350
     5  C    0.006403   0.001225  -0.000888   0.011617  -0.025824  -0.000549
     6  C    0.052331   0.005499  -0.000946  -0.002908  -0.019454  -0.003813
     7  H   -0.000617  -0.000020   0.000053  -0.000433   0.000098  -0.000011
     8  H    0.000071  -0.000002  -0.000006   0.000041  -0.000005   0.000006
     9  H   -0.000110   0.000014   0.000037  -0.000334   0.000058  -0.000017
    10  C   -0.036475   0.007635  -0.008137  -0.028651   0.024168   0.001710
    11  O   -0.038616   0.001855  -0.000761   0.003316  -0.021307  -0.002344
    12  C   -0.003572   0.000885  -0.000693  -0.006093   0.010024   0.000485
    13  H   -0.000357   0.000007  -0.000045   0.000378   0.000005   0.000006
    14  H    0.000173  -0.000023   0.000024   0.000101  -0.000109  -0.000010
    15  H    0.000230  -0.000019  -0.000005   0.000274   0.000050   0.000003
    16  C    0.002419  -0.003505   0.002314   0.019103  -0.009240  -0.000999
    17  H   -0.000748  -0.000005  -0.000084   0.000358   0.000011   0.000021
    18  H    0.001453   0.000098   0.000215  -0.000744  -0.000322  -0.000041
    19  H   -0.004668   0.001201  -0.001390  -0.011771   0.002986   0.000294
    20  C   -0.044873  -0.002012  -0.005433   0.036556  -0.096915   0.002573
    21  C   -0.081356   0.024419  -0.009519  -0.035263   0.173605  -0.001422
    22  C    0.028705   0.000618   0.009179  -0.030260   0.029161  -0.004817
    23  C   -0.099731   0.010895   0.014526  -0.034442   0.263337   0.018091
    24  C    0.032054  -0.010203   0.008911   0.022388  -0.319639  -0.015748
    25  H    0.000816   0.000103   0.000141  -0.000865   0.000022  -0.000098
    26  C   -0.119782  -0.008370  -0.020826   0.089384  -0.555182   0.035587
    27  H    0.000667  -0.000654   0.000084   0.000473   0.000823   0.000084
    28  H   -0.007525   0.001120  -0.001390  -0.000315   0.004591   0.005801
    29  B   -0.001188   0.001136   0.000348  -0.006585  -0.004280  -0.002018
    30  N    0.244297  -0.082878  -0.050040  -0.048365   0.351229  -0.086247
    31  C    5.462454   0.410078   0.398581   0.388479  -0.183351  -0.008396
    32  H    0.410078   0.589668  -0.055534  -0.051551  -0.021194  -0.007457
    33  H    0.398581  -0.055534   0.545876   0.001714  -0.010546   0.002806
    34  H    0.388479  -0.051551   0.001714   0.545516  -0.001844   0.004711
    35  C   -0.183351  -0.021194  -0.010546  -0.001844   5.524056   0.422941
    36  H   -0.008396  -0.007457   0.002806   0.004711   0.422941   0.518466
    37  H   -0.010196   0.018078   0.003573  -0.003016   0.359323  -0.059764
    38  H    0.009888  -0.000359  -0.002873  -0.001868   0.440019  -0.000679
    39  F    0.031113   0.003571  -0.009840  -0.006629  -0.004579  -0.001788
    40  F    0.001609   0.000282  -0.001347   0.001784   0.000215  -0.000013
              37         38         39         40
     1  C   -0.000227  -0.001276  -0.061258   0.063135
     2  C   -0.000268  -0.000268   0.162996  -0.139492
     3  C    0.000048  -0.000116   0.018264   0.013405
     4  C    0.000171  -0.000168  -0.005194   0.018047
     5  C    0.000618  -0.000479   0.000742   0.010402
     6  C   -0.000446  -0.000043  -0.096265   0.071461
     7  H   -0.000013   0.000033   0.000558   0.005248
     8  H    0.000001  -0.000001  -0.000001  -0.000545
     9  H    0.000008   0.000010   0.000053   0.000409
    10  C   -0.002148  -0.000616   0.003381   0.004333
    11  O    0.001955  -0.000661   0.005480  -0.003061
    12  C   -0.000539   0.000018  -0.000092   0.000471
    13  H   -0.000023   0.000059  -0.000000  -0.000000
    14  H   -0.000006  -0.000016  -0.000019  -0.000002
    15  H    0.000014   0.000006  -0.000034  -0.000009
    16  C    0.000553   0.000554  -0.000460  -0.000213
    17  H   -0.000009   0.000007  -0.000011   0.000008
    18  H    0.000066  -0.000041   0.000104  -0.000025
    19  H   -0.000387   0.000093  -0.000277   0.000274
    20  C   -0.010914  -0.005278   0.011731  -0.002893
    21  C    0.004592   0.006977  -0.031481  -0.012791
    22  C    0.010713  -0.005326  -0.000126  -0.000376
    23  C   -0.000213  -0.024263  -0.013458   0.003118
    24  C    0.039133  -0.010978   0.000800   0.000092
    25  H    0.000064  -0.000099  -0.000016  -0.000002
    26  C   -0.018666   0.023170   0.003939   0.000085
    27  H    0.000742   0.000003  -0.000001   0.000001
    28  H   -0.011911  -0.008185   0.000088  -0.000003
    29  B    0.000462  -0.000293   0.395609   0.315670
    30  N   -0.025145  -0.062891   0.007655   0.000095
    31  C   -0.010196   0.009888   0.031113   0.001609
    32  H    0.018078  -0.000359   0.003571   0.000282
    33  H    0.003573  -0.002873  -0.009840  -0.001347
    34  H   -0.003016  -0.001868  -0.006629   0.001784
    35  C    0.359323   0.440019  -0.004579   0.000215
    36  H   -0.059764  -0.000679  -0.001788  -0.000013
    37  H    0.607333  -0.050403   0.000027  -0.000024
    38  H   -0.050403   0.530893  -0.000261   0.000041
    39  F    0.000027  -0.000261   8.661303  -0.073601
    40  F   -0.000024   0.000041  -0.073601   8.753393
 Mulliken charges:
               1
     1  C   -0.387783
     2  C   -0.133992
     3  C   -0.685807
     4  C   -0.224691
     5  C    0.397684
     6  C    0.119534
     7  H    0.232157
     8  H    0.242772
     9  H    0.178736
    10  C   -0.172062
    11  O   -0.059976
    12  C   -0.427083
    13  H    0.172808
    14  H    0.167117
    15  H    0.199127
    16  C   -0.781343
    17  H    0.182074
    18  H    0.188533
    19  H    0.189358
    20  C    0.622487
    21  C   -0.095553
    22  C   -0.321125
    23  C   -0.260058
    24  C   -0.562218
    25  H    0.154081
    26  C   -0.085636
    27  H    0.248736
    28  H    0.183133
    29  B    0.334582
    30  N    0.178144
    31  C   -0.449302
    32  H    0.172471
    33  H    0.183266
    34  H    0.171452
    35  C   -0.334133
    36  H    0.181196
    37  H    0.146846
    38  H    0.165671
    39  F   -0.002024
    40  F   -0.029179
 Sum of Mulliken charges =  -0.00000
 Mulliken charges with hydrogens summed into heavy atoms:
               1
     1  C   -0.387783
     2  C    0.098165
     3  C   -0.443035
     4  C   -0.045956
     5  C    0.397684
     6  C    0.119534
    10  C   -0.172062
    11  O   -0.059976
    12  C    0.111970
    16  C   -0.221377
    20  C    0.622487
    21  C   -0.095553
    22  C   -0.167044
    23  C   -0.260058
    24  C   -0.313482
    26  C    0.097496
    29  B    0.334582
    30  N    0.178144
    31  C    0.077887
    35  C    0.159578
    39  F   -0.002024
    40  F   -0.029179
 Electronic spatial extent (au):  <R**2>=          17691.9605
 Charge=              0.0000 electrons
 Dipole moment (field-independent basis, Debye):
    X=              0.9921    Y=              2.7547    Z=             -1.0277  Tot=              3.1031
 Quadrupole moment (field-independent basis, Debye-Ang):
   XX=           -120.5420   YY=           -114.0413   ZZ=           -126.5537
   XY=             -1.1685   XZ=              8.8671   YZ=             -2.0082
 Traceless Quadrupole moment (field-independent basis, Debye-Ang):
   XX=             -0.1630   YY=              6.3377   ZZ=             -6.1747
   XY=             -1.1685   XZ=              8.8671   YZ=             -2.0082
 Octapole moment (field-independent basis, Debye-Ang**2):
  XXX=           1201.7777  YYY=          -1077.9166  ZZZ=            131.6474  XYY=            435.3513
  XXY=           -381.6360  XXZ=             -6.5473  XZZ=            408.0376  YZZ=           -374.0823
  YYZ=             20.8152  XYZ=             13.4072
 Hexadecapole moment (field-independent basis, Debye-Ang**3):
 XXXX=         -11425.5748 YYYY=          -9384.0628 ZZZZ=          -1943.1097 XXXY=           3706.6630
 XXXZ=           -737.5881 YYYX=           3766.9981 YYYZ=            835.7532 ZZZX=          -1028.5863
 ZZZY=            927.6074 XXYY=          -3791.4220 XXZZ=          -2188.8556 YYZZ=          -1889.3954
 XXYZ=            244.0442 YYXZ=           -286.9797 ZZXY=           1135.8556
 N-N= 1.844381889389D+03 E-N=-6.056765795496D+03  KE= 1.009288430686D+03
 Breneman (CHELPG) radii used.
 Generate Potential Derived Charges using the Breneman model, NDens= 1.
 Grid spacing= 0.300 Box extension= 2.800
 NStep X,Y,Z=   51     46     40   Total possible points=       93840
 Number of Points to Fit=   21171

 **********************************************************************

            Electrostatic Properties Using The SCF Density.

 **********************************************************************

       Atomic Center    1 is at  -2.091144  1.427817  1.029402
       Atomic Center    2 is at  -0.724353  1.268210  1.297072
       Atomic Center    3 is at   0.188850  2.256336  0.973111
       Atomic Center    4 is at  -0.255576  3.439134  0.391138
       Atomic Center    5 is at  -1.602867  3.654181  0.120898
       Atomic Center    6 is at  -2.496254  2.625483  0.425146
       Atomic Center    7 is at  -0.382993  0.349196  1.759505
       Atomic Center    8 is at   1.243649  2.116050  1.176474
       Atomic Center    9 is at   0.468636  4.209144  0.154953
       Atomic Center   10 is at  -2.176288  4.965778 -0.403578
       Atomic Center   11 is at  -3.819856  2.769053  0.137311
       Atomic Center   12 is at  -1.119468  5.815697 -1.111418
       Atomic Center   13 is at  -1.551666  6.758128 -1.452585
       Atomic Center   14 is at  -0.312438  6.077575 -0.424125
       Atomic Center   15 is at  -0.691722  5.296058 -1.972506
       Atomic Center   16 is at  -2.728963  5.764589  0.801148
       Atomic Center   17 is at  -1.919541  6.005136  1.496304
       Atomic Center   18 is at  -3.183877  6.696500  0.454432
       Atomic Center   19 is at  -3.487670  5.194289  1.341943
       Atomic Center   20 is at  -3.344822  4.614758 -1.319473
       Atomic Center   21 is at  -4.152208  3.547033 -0.949890
       Atomic Center   22 is at  -3.672500  5.324137 -2.475218
       Atomic Center   23 is at  -5.312358  3.183221 -1.658576
       Atomic Center   24 is at  -4.792756  4.974398 -3.210655
       Atomic Center   25 is at  -3.055704  6.150485 -2.803170
       Atomic Center   26 is at  -5.611006  3.928087 -2.801768
       Atomic Center   27 is at  -5.044554  5.528931 -4.107537
       Atomic Center   28 is at  -6.490042  3.686103 -3.384686
       Atomic Center   29 is at  -3.054900  0.284303  1.415405
       Atomic Center   30 is at  -6.079183  2.083104 -1.239316
       Atomic Center   31 is at  -6.681556  2.197570  0.084851
       Atomic Center   32 is at  -7.524135  2.907923  0.082652
       Atomic Center   33 is at  -7.053499  1.218144  0.392265
       Atomic Center   34 is at  -5.944054  2.518153  0.815692
       Atomic Center   35 is at  -7.009018  1.536348 -2.207495
       Atomic Center   36 is at  -7.373628  0.577843 -1.832200
       Atomic Center   37 is at  -7.884768  2.183045 -2.385365
       Atomic Center   38 is at  -6.505007  1.359159 -3.159284
       Atomic Center   39 is at  -4.378593  0.345137  1.366719
       Atomic Center   40 is at  -2.559261 -0.871993  1.869909
   21171 points will be used for fitting atomic charges
 Fitting point charges to electrostatic potential
 Charges from ESP fit, RMS=   0.00389 RRMS=   0.33755:
 ESP charges:
               1
     1  C   -0.407867
     2  C   -0.012820
     3  C   -0.201984
     4  C   -0.017178
     5  C   -0.194426
     6  C    0.387667
     7  H    0.101695
     8  H    0.121114
     9  H    0.102375
    10  C    0.389785
    11  O   -0.315133
    12  C   -0.276203
    13  H    0.081362
    14  H    0.086504
    15  H    0.031910
    16  C   -0.208843
    17  H    0.034298
    18  H    0.037857
    19  H    0.061019
    20  C   -0.044404
    21  C    0.044556
    22  C   -0.192056
    23  C    0.315375
    24  C   -0.159135
    25  H    0.133451
    26  C   -0.218798
    27  H    0.123302
    28  H    0.143057
    29  B    0.857484
    30  N   -0.370563
    31  C    0.026939
    32  H    0.001984
    33  H    0.071900
    34  H    0.060821
    35  C   -0.119391
    36  H    0.100662
    37  H    0.064967
    38  H    0.061944
    39  F   -0.345271
    40  F   -0.357954
 Sum of ESP charges =   0.00000
 ESP charges with hydrogens summed into heavy atoms:
               1
     1  C   -0.407867
     2  C    0.088876
     3  C   -0.080870
     4  C    0.085197
     5  C   -0.194426
     6  C    0.387667
    10  C    0.389785
    11  O   -0.315133
    12  C   -0.076427
    16  C   -0.075670
    20  C   -0.044404
    21  C    0.044556
    22  C   -0.058606
    23  C    0.315375
    24  C   -0.035833
    26  C   -0.075741
    29  B    0.857484
    30  N   -0.370563
    31  C    0.161644
    35  C    0.108181
    39  F   -0.345271
    40  F   -0.357954
 Charge=   0.00000 Dipole=     0.9345     2.7616    -1.0630 Tot=     3.1032
 -----------------------------------------------------------------

              Electrostatic Properties (Atomic Units)

 -----------------------------------------------------------------
    Center     Electric         -------- Electric Field --------
               Potential          X             Y             Z
 -----------------------------------------------------------------
    1 Atom    -14.774528
    2 Atom    -14.760349
    3 Atom    -14.767434
    4 Atom    -14.755898
    5 Atom    -14.755484
    6 Atom    -14.697024
    7 Atom     -1.099011
    8 Atom     -1.095952
    9 Atom     -1.087978
   10 Atom    -14.729581
   11 Atom    -22.317562
   12 Atom    -14.771895
   13 Atom     -1.107860
   14 Atom     -1.106321
   15 Atom     -1.110787
   16 Atom    -14.776816
   17 Atom     -1.114808
   18 Atom     -1.115869
   19 Atom     -1.118728
   20 Atom    -14.762704
   21 Atom    -14.715233
   22 Atom    -14.777151
   23 Atom    -14.736248
   24 Atom    -14.776766
   25 Atom     -1.102903
   26 Atom    -14.778421
   27 Atom     -1.106575
   28 Atom     -1.102727
   29 Atom    -11.357383
   30 Atom    -18.386710
   31 Atom    -14.762812
   32 Atom     -1.129113
   33 Atom     -1.126526
   34 Atom     -1.128988
   35 Atom    -14.752984
   36 Atom     -1.115881
   37 Atom     -1.119031
   38 Atom     -1.114601
   39 Atom    -26.599899
   40 Atom    -26.598632
 -----------------------------------------------------------------
 Unable to Open any file for archive entry.
 1\1\GINC-IRENE4762\SP\RwB97XD\GenECP\C17H18B1F2N1O1\PENASFRA\10-Apr-20
 24\0\\# wb97xd/genecp scrf=(solvent=toluene,pcm) nosymm pop=(chelpg) s
 cfcyc=300\\f_xanthene_chelpg\\0,1\C,0,-2.091144,1.427817,1.029402\C,0,
 -0.724353,1.26821,1.297072\C,0,0.18885,2.256336,0.973111\C,0,-0.255576
 ,3.439134,0.391138\C,0,-1.602867,3.654181,0.120898\C,0,-2.496254,2.625
 483,0.425146\H,0,-0.382993,0.349196,1.759505\H,0,1.243649,2.11605,1.17
 6474\H,0,0.468636,4.209144,0.154953\C,0,-2.176288,4.965778,-0.403578\O
 ,0,-3.819856,2.769053,0.137311\C,0,-1.119468,5.815697,-1.111418\H,0,-1
 .551666,6.758128,-1.452585\H,0,-0.312438,6.077575,-0.424125\H,0,-0.691
 722,5.296058,-1.972506\C,0,-2.728963,5.764589,0.801148\H,0,-1.919541,6
 .005136,1.496304\H,0,-3.183877,6.6965,0.454432\H,0,-3.48767,5.194289,1
 .341943\C,0,-3.344822,4.614758,-1.319473\C,0,-4.152208,3.547033,-0.949
 89\C,0,-3.6725,5.324137,-2.475218\C,0,-5.312358,3.183221,-1.658576\C,0
 ,-4.792756,4.974398,-3.210655\H,0,-3.055704,6.150485,-2.80317\C,0,-5.6
 11006,3.928087,-2.801768\H,0,-5.044554,5.528931,-4.107537\H,0,-6.49004
 2,3.686103,-3.384686\B,0,-3.0549,0.284303,1.415405\N,0,-6.079183,2.083
 104,-1.239316\C,0,-6.681556,2.19757,0.084851\H,0,-7.524135,2.907923,0.
 082652\H,0,-7.053499,1.218144,0.392265\H,0,-5.944054,2.518153,0.815692
 \C,0,-7.009018,1.536348,-2.207495\H,0,-7.373628,0.577843,-1.8322\H,0,-
 7.884768,2.183045,-2.385365\H,0,-6.505007,1.359159,-3.159284\F,0,-4.37
 8593,0.345137,1.366719\F,0,-2.559261,-0.871993,1.869909\\Version=AS64L
 -G16RevC.02\HF=-1013.2431279\RMSD=3.947e-09\Dipole=0.3903146,1.083798,
 -0.4043275\Quadrupole=-0.1211586,4.7119045,-4.5907459,-0.8687573,6.592
 4904,-1.4930134\PG=C01 [X(C17H18B1F2N1O1)]\\@
 The archive entry for this job was punched.


 KNIGHT- SIRE, I'VE JUST RETURNED FROM THE FRONT
 KING-   HOW GOES THE BATTLE                    
 KNIGHT- THE SITUATION IS QUITE FLUID           
 KING-   WHAT DOES *THAT* MEAN                  
 KNIGHT- WE'RE UP THE CREEK                     
                THE WIZARD OF ID                
 Job cpu time:       0 days  2 hours 14 minutes 48.0 seconds.
 Elapsed time:       0 days  0 hours  1 minutes 21.9 seconds.
 File lengths (MBytes):  RWF=    328 Int=      0 D2E=      0 Chk=     23 Scr=      1
 Normal termination of Gaussian 16 at Wed Apr 10 16:31:55 2024.
