 Entering Gaussian System, Link 0=/ccc/products/gaussian-16-C.02/system/default/g16/g16
 Input=h_dimethylaniline_chelpg.gjf
 Output=h_dimethylaniline_chelpg.log
 Initial command:
 /ccc/products/gaussian-16-C.02/system/default/g16/l1.exe "/ccc/scratch/cont003/gen7343/penasfra/flp/b-n_flp/h_dimethylaniline/Reactant/Gau-166483.inp" -scrdir="/ccc/scratch/cont003/gen7343/penasfra/flp/b-n_flp/h_dimethylaniline/Reactant/"
 Entering Link 1 = /ccc/products/gaussian-16-C.02/system/default/g16/l1.exe PID=    166532.
  
 Copyright (c) 1988-2021, Gaussian, Inc.  All Rights Reserved.
  
 This is part of the Gaussian(R) 16 program.  It is based on
 the Gaussian(R) 09 system (copyright 2009, Gaussian, Inc.),
 the Gaussian(R) 03 system (copyright 2003, Gaussian, Inc.),
 the Gaussian(R) 98 system (copyright 1998, Gaussian, Inc.),
 the Gaussian(R) 94 system (copyright 1995, Gaussian, Inc.),
 the Gaussian 92(TM) system (copyright 1992, Gaussian, Inc.),
 the Gaussian 90(TM) system (copyright 1990, Gaussian, Inc.),
 the Gaussian 88(TM) system (copyright 1988, Gaussian, Inc.),
 the Gaussian 86(TM) system (copyright 1986, Carnegie Mellon
 University), and the Gaussian 82(TM) system (copyright 1983,
 Carnegie Mellon University). Gaussian is a federally registered
 trademark of Gaussian, Inc.
  
 This software contains proprietary and confidential information,
 including trade secrets, belonging to Gaussian, Inc.
  
 This software is provided under written license and may be
 used, copied, transmitted, or stored only in accord with that
 written license.
  
 The following legend is applicable only to US Government
 contracts under FAR:
  
                    RESTRICTED RIGHTS LEGEND
  
 Use, reproduction and disclosure by the US Government is
 subject to restrictions as set forth in subparagraphs (a)
 and (c) of the Commercial Computer Software - Restricted
 Rights clause in FAR 52.227-19.
  
 Gaussian, Inc.
 340 Quinnipiac St., Bldg. 40, Wallingford CT 06492
  
  
 ---------------------------------------------------------------
 Warning -- This program may not be used in any manner that
 competes with the business of Gaussian, Inc. or will provide
 assistance to any competitor of Gaussian, Inc.  The licensee
 of this program is prohibited from giving any competitor of
 Gaussian, Inc. access to this program.  By using this program,
 the user acknowledges that Gaussian, Inc. is engaged in the
 business of creating and licensing software in the field of
 computational chemistry and represents and warrants to the
 licensee that it is not a competitor of Gaussian, Inc. and that
 it will not use this program in any manner prohibited above.
 ---------------------------------------------------------------
  

 Cite this work as:
 Gaussian 16, Revision C.02,
 M. J. Frisch, G. W. Trucks, H. B. Schlegel, G. E. Scuseria, 
 M. A. Robb, J. R. Cheeseman, G. Scalmani, V. Barone, 
 G. A. Petersson, H. Nakatsuji, X. Li, M. Caricato, A. V. Marenich, 
 J. Bloino, B. G. Janesko, R. Gomperts, B. Mennucci, H. P. Hratchian, 
 J. V. Ortiz, A. F. Izmaylov, J. L. Sonnenberg, D. Williams-Young, 
 F. Ding, F. Lipparini, F. Egidi, J. Goings, B. Peng, A. Petrone, 
 T. Henderson, D. Ranasinghe, V. G. Zakrzewski, J. Gao, N. Rega, 
 G. Zheng, W. Liang, M. Hada, M. Ehara, K. Toyota, R. Fukuda, 
 J. Hasegawa, M. Ishida, T. Nakajima, Y. Honda, O. Kitao, H. Nakai, 
 T. Vreven, K. Throssell, J. A. Montgomery, Jr., J. E. Peralta, 
 F. Ogliaro, M. J. Bearpark, J. J. Heyd, E. N. Brothers, K. N. Kudin, 
 V. N. Staroverov, T. A. Keith, R. Kobayashi, J. Normand, 
 K. Raghavachari, A. P. Rendell, J. C. Burant, S. S. Iyengar, 
 J. Tomasi, M. Cossi, J. M. Millam, M. Klene, C. Adamo, R. Cammi, 
 J. W. Ochterski, R. L. Martin, K. Morokuma, O. Farkas, 
 J. B. Foresman, and D. J. Fox, Gaussian, Inc., Wallingford CT, 2019.
 
 ******************************************
 Gaussian 16:  AS64L-G16RevC.02  7-Dec-2021
                 9-Apr-2024 
 ******************************************
 %nprocshared=128
 Will use up to  128 processors via shared memory.
 %mem=30GB
 %chk=h_dimethylaniline_chelpg.chk
 ----------------------------------------------------------------------
 # wb97xd/genecp scrf=(solvent=toluene,pcm) nosymm pop=(chelpg) scfcyc=
 300
 ----------------------------------------------------------------------
 1/38=1,172=1/1;
 2/12=2,15=1,17=6,18=5,40=1/2;
 3/5=7,11=2,16=1,17=8,25=1,30=1,70=2201,72=13,74=-58/1,2,3;
 4//1;
 5/5=2,7=300,38=5,53=13/2;
 6/7=2,8=2,9=2,10=2,15=8,20=3,28=1/1,2;
 99/5=1,9=1/99;
 ------------------------
 h_dimethylaniline_chelpg
 ------------------------
 Symbolic Z-matrix:
 Charge =  0 Multiplicity = 1
 C                    -0.63726   0.89017   0.77264 
 C                     0.72763   1.07089   0.90287 
 C                     1.39281   2.22412   0.43748 
 C                     0.60002   3.28117  -0.10528 
 C                    -0.78378   3.07379  -0.26497 
 C                    -1.38006   1.89967   0.16346 
 H                    -1.11652  -0.01623   1.12235 
 H                     1.3304    0.28215   1.34246 
 H                    -1.40845   3.84776  -0.69073 
 H                    -2.45204   1.78277   0.04063 
 N                     1.17258   4.48065  -0.48016 
 B                     2.91328   2.12473   0.30595 
 C                     2.1946    5.11718   0.33795 
 H                     2.47279   4.47424   1.17131 
 H                     3.09415   5.33889  -0.24292 
 H                     1.80513   6.05696   0.75133 
 C                     0.4119    5.42164  -1.27644 
 H                    -0.07973   4.91451  -2.10786 
 H                    -0.34592   5.96234  -0.6891 
 H                     1.10129   6.15654  -1.69628 
 H                     3.48682   1.23437   0.86735 
 H                     3.54329   2.85867  -0.39632 
 
                          Input orientation:                          
 ---------------------------------------------------------------------
 Center     Atomic      Atomic             Coordinates (Angstroms)
 Number     Number       Type             X           Y           Z
 ---------------------------------------------------------------------
      1          6           0       -0.637262    0.890170    0.772636
      2          6           0        0.727627    1.070885    0.902870
      3          6           0        1.392812    2.224117    0.437482
      4          6           0        0.600017    3.281167   -0.105283
      5          6           0       -0.783778    3.073788   -0.264965
      6          6           0       -1.380063    1.899670    0.163456
      7          1           0       -1.116525   -0.016234    1.122346
      8          1           0        1.330402    0.282147    1.342457
      9          1           0       -1.408450    3.847760   -0.690730
     10          1           0       -2.452039    1.782770    0.040634
     11          7           0        1.172584    4.480654   -0.480155
     12          5           0        2.913284    2.124731    0.305952
     13          6           0        2.194595    5.117184    0.337945
     14          1           0        2.472790    4.474241    1.171314
     15          1           0        3.094151    5.338886   -0.242918
     16          1           0        1.805126    6.056963    0.751326
     17          6           0        0.411897    5.421645   -1.276444
     18          1           0       -0.079731    4.914508   -2.107858
     19          1           0       -0.345921    5.962337   -0.689095
     20          1           0        1.101286    6.156538   -1.696282
     21          1           0        3.486817    1.234373    0.867346
     22          1           0        3.543289    2.858670   -0.396323
 ---------------------------------------------------------------------
                    Distance matrix (angstroms):
                    1          2          3          4          5
     1  C    0.000000
     2  C    1.382946   0.000000
     3  C    2.452130   1.410320   0.000000
     4  C    2.831690   2.432695   1.428451   0.000000
     5  C    2.422038   2.767635   2.439860   1.408330   0.000000
     6  C    1.393536   2.382430   2.805208   2.429294   1.384794
     7  H    1.083309   2.151951   3.432926   3.914900   3.403467
     8  H    2.136841   1.085671   2.143390   3.409330   3.853157
     9  H    3.388733   3.848821   3.428724   2.167421   1.081907
    10  H    2.150809   3.370535   3.890393   3.403165   2.131481
    11  N    4.211485   3.706382   2.445918   1.380989   2.419283
    12  B    3.787917   2.498800   1.529383   2.618714   3.859394
    13  C    5.106468   4.340930   3.003764   2.471859   3.661922
    14  H    4.762030   3.834122   2.601523   2.561329   3.824840
    15  H    5.894562   5.012893   3.613763   3.236334   4.491045
    16  H    5.715021   5.103425   3.867714   3.145014   4.078554
    17  C    5.082689   4.876290   3.758181   2.447173   2.822262
    18  H    4.980299   4.948712   3.985642   2.672109   2.698182
    19  H    5.286626   5.254823   4.273951   2.902466   2.952172
    20  H    6.070646   5.723555   4.483511   3.324200   3.886577
    21  H    4.139502   2.764258   2.355681   3.670012   4.785766
    22  H    4.766389   3.579390   2.392162   2.987651   4.334402
                    6          7          8          9         10
     6  C    0.000000
     7  H    2.158613   0.000000
     8  H    3.369428   2.474860   0.000000
     9  H    2.127321   4.278191   4.934446   0.000000
    10  H    1.085303   2.487994   4.272408   2.426552   0.000000
    11  N    3.686695   5.294340   4.579769   2.665827   4.548372
    12  B    4.301603   4.635687   2.641018   4.758108   5.382752
    13  C    4.812590   6.158797   5.013328   3.956203   5.726947
    14  H    4.742222   5.748908   4.348332   4.350139   5.725067
    15  H    5.657909   6.947737   5.585234   4.764180   6.594436
    16  H    5.270114   6.749624   5.824371   4.157785   6.074312
    17  C    4.205798   6.136839   5.840953   2.476659   4.814378
    18  H    3.992365   5.985096   5.945748   2.216235   4.477906
    19  H    4.278032   6.294320   6.261136   2.366518   4.736773
    20  H    5.266559   7.139080   6.617771   3.555329   5.896850
    21  H    4.962318   4.777007   2.404702   5.763769   6.021146
    22  H    5.047022   5.682015   3.815586   5.058131   6.106754
                   11         12         13         14         15
    11  N    0.000000
    12  B    3.032882   0.000000
    13  C    1.455666   3.077712   0.000000
    14  H    2.101886   2.542260   1.088702   0.000000
    15  H    2.117844   3.265695   1.093506   1.770241   0.000000
    16  H    2.097953   4.109601   1.098069   1.768382   1.779253
    17  C    1.448511   4.430638   2.424244   3.337121   2.875676
    18  H    2.099033   4.750523   3.345981   4.178776   3.705621
    19  H    2.131877   5.132227   2.867633   3.690621   3.524466
    20  H    2.071868   4.852602   2.532521   3.596422   2.598525
    21  H    4.208298   1.198683   4.126297   3.408430   4.270117
    22  H    2.873691   1.195309   2.731119   2.492694   2.525219
                   16         17         18         19         20
    16  H    0.000000
    17  C    2.540978   0.000000
    18  H    3.610100   1.090933   0.000000
    19  H    2.590515   1.100734   1.783730   0.000000
    20  H    2.548743   1.091599   1.762621   1.773851   0.000000
    21  H    5.108710   5.619984   5.925833   6.282200   6.040750
    22  H    3.816725   4.141144   4.503565   4.984418   4.304556
                   21         22
    21  H    0.000000
    22  H    2.058735   0.000000
 Symmetry turned off by external request.
 Stoichiometry    C8H12BN
 Framework group  C1[X(C8H12BN)]
 Deg. of freedom    60
 Full point group                 C1      NOp   1
 Rotational constants (GHZ):           2.1865645           1.1792839           0.8096497
 General basis read from cards:  (5D, 7F)
 ======================================================================================================
                                       Pseudopotential Parameters
 ======================================================================================================
  Center     Atomic      Valence      Angular      Power
  Number     Number     Electrons     Momentum     of R      Exponent        Coefficient   SO-Coeffient
 ======================================================================================================
    1          6
                                   No pseudopotential on this center.
    2          6
                                   No pseudopotential on this center.
    3          6
                                   No pseudopotential on this center.
    4          6
                                   No pseudopotential on this center.
    5          6
                                   No pseudopotential on this center.
    6          6
                                   No pseudopotential on this center.
    7          1
                                   No pseudopotential on this center.
    8          1
                                   No pseudopotential on this center.
    9          1
                                   No pseudopotential on this center.
   10          1
                                   No pseudopotential on this center.
   11          7
                                   No pseudopotential on this center.
   12          5
                                   No pseudopotential on this center.
   13          6
                                   No pseudopotential on this center.
   14          1
                                   No pseudopotential on this center.
   15          1
                                   No pseudopotential on this center.
   16          1
                                   No pseudopotential on this center.
   17          6
                                   No pseudopotential on this center.
   18          1
                                   No pseudopotential on this center.
   19          1
                                   No pseudopotential on this center.
   20          1
                                   No pseudopotential on this center.
   21          1
                                   No pseudopotential on this center.
   22          1
                                   No pseudopotential on this center.
 ======================================================================================================
   304 basis functions,   468 primitive gaussians,   314 cartesian basis functions
    36 alpha electrons       36 beta electrons
       nuclear repulsion energy       495.4301814762 Hartrees.
 NAtoms=   22 NActive=   22 NUniq=   22 SFac= 1.00D+00 NAtFMM=   60 NAOKFM=F Big=F
 Integral buffers will be    131072 words long.
 Raffenetti 2 integral format.
 Two-electron integral symmetry is turned off.
 Nuclear repulsion after empirical dispersion term =      495.4162795623 Hartrees.
 ------------------------------------------------------------------------------
 Polarizable Continuum Model (PCM)
 =================================
 Model                : PCM.
 Atomic radii         : UFF (Universal Force Field).
 Polarization charges : Total charges.
 Charge compensation  : None.
 Solution method      : On-the-fly selection.
 Cavity type          : Scaled VdW (van der Waals Surface) (Alpha=1.100).
 Cavity algorithm     : GePol (No added spheres)
                        Default sphere list used, NSphG=   22.
                        Lebedev-Laikov grids with approx.  5.0 points / Ang**2.
                        Smoothing algorithm: York/Karplus (Gamma=1.0000).
                        Polarization charges: spherical gaussians, with
                                              point-specific exponents (IZeta= 3).
                        Self-potential: point-specific (ISelfS= 7).
                        Self-field    : sphere-specific E.n sum rule (ISelfD= 2).
 Solvent              : Toluene, Eps=   2.374100 Eps(inf)=   2.238315
 ------------------------------------------------------------------------------
 One-electron integrals computed using PRISM.
   1 Symmetry operations used in ECPInt.
 ECPInt:  NShTT=    7260 NPrTT=   23221 LenC2=    7120 LenP2D=   17555.
 LDataN:  DoStor=T MaxTD1= 4 Len=   56
 NBasis=   304 RedAO= T EigKep=  2.00D-06  NBF=   304
 NBsUse=   303 1.00D-06 EigRej=  6.49D-07 NBFU=   303
 ExpMin= 3.15D-02 ExpMax= 6.29D+03 ExpMxC= 9.49D+02 IAcc=3 IRadAn=         5 AccDes= 0.00D+00
 Harris functional with IExCor= 4639 and IRadAn=       5 diagonalized for initial guess.
 HarFok:  IExCor= 4639 AccDes= 0.00D+00 IRadAn=         5 IDoV= 1 UseB2=F ITyADJ=14
 ICtDFT=  3500011 ScaDFX=  1.000000  1.000000  1.000000  1.000000
 FoFCou: FMM=F IPFlag=           0 FMFlag=      100000 FMFlg1=           0
         NFxFlg=           0 DoJE=T BraDBF=F KetDBF=T FulRan=T
         wScrn=  0.000000 ICntrl=       500 IOpCl=  0 I1Cent=   200000004 NGrid=           0
         NMat0=    1 NMatS0=      1 NMatT0=    0 NMatD0=    1 NMtDS0=    0 NMtDT0=    0
 Symmetry not used in FoFCou.
 Requested convergence on RMS density matrix=1.00D-08 within 300 cycles.
 Requested convergence on MAX density matrix=1.00D-06.
 Requested convergence on             energy=1.00D-06.
 No special actions if energy rises.
 Inv3:  Mode=1 IEnd=     8416875.
 Iteration    1 A*A^-1 deviation from unit magnitude is 4.33D-15 for   1664.
 Iteration    1 A*A^-1 deviation from orthogonality  is 2.59D-15 for   1673    453.
 Iteration    1 A^-1*A deviation from unit magnitude is 3.89D-15 for   1664.
 Iteration    1 A^-1*A deviation from orthogonality  is 1.76D-15 for   1655    167.
 Error on total polarization charges =  0.00956
 SCF Done:  E(RwB97XD) =  -391.618048364     A.U. after   16 cycles
            NFock= 16  Conv=0.99D-08     -V/T= 2.0046

 **********************************************************************

            Population analysis using the SCF Density.

 **********************************************************************

 Alpha  occ. eigenvalues --  -14.45479 -10.33924 -10.31264 -10.31170 -10.29805
 Alpha  occ. eigenvalues --  -10.29392 -10.28434 -10.27892 -10.26752  -6.83700
 Alpha  occ. eigenvalues --   -1.05827  -0.95215  -0.85333  -0.85187  -0.81937
 Alpha  occ. eigenvalues --   -0.76144  -0.70203  -0.67530  -0.62945  -0.58090
 Alpha  occ. eigenvalues --   -0.57221  -0.56262  -0.55206  -0.52844  -0.51285
 Alpha  occ. eigenvalues --   -0.49293  -0.48211  -0.47454  -0.46583  -0.45939
 Alpha  occ. eigenvalues --   -0.43853  -0.40397  -0.40053  -0.37143  -0.33885
 Alpha  occ. eigenvalues --   -0.27685
 Alpha virt. eigenvalues --   -0.00025   0.03943   0.04969   0.05423   0.06010
 Alpha virt. eigenvalues --    0.06240   0.06846   0.06959   0.08062   0.08368
 Alpha virt. eigenvalues --    0.08992   0.09364   0.09839   0.10695   0.11832
 Alpha virt. eigenvalues --    0.12371   0.12593   0.13650   0.14070   0.14658
 Alpha virt. eigenvalues --    0.14971   0.15875   0.16139   0.16673   0.17250
 Alpha virt. eigenvalues --    0.17359   0.18179   0.18368   0.18713   0.19169
 Alpha virt. eigenvalues --    0.19599   0.19973   0.20392   0.20688   0.20781
 Alpha virt. eigenvalues --    0.21011   0.21529   0.22602   0.22930   0.23997
 Alpha virt. eigenvalues --    0.24293   0.24608   0.24840   0.25667   0.26010
 Alpha virt. eigenvalues --    0.26666   0.27153   0.27538   0.27829   0.28651
 Alpha virt. eigenvalues --    0.29231   0.29908   0.30588   0.30814   0.32105
 Alpha virt. eigenvalues --    0.32714   0.33136   0.33630   0.34842   0.35365
 Alpha virt. eigenvalues --    0.35728   0.36293   0.36946   0.37472   0.38397
 Alpha virt. eigenvalues --    0.38762   0.39642   0.39887   0.40243   0.41262
 Alpha virt. eigenvalues --    0.42854   0.44713   0.46942   0.47771   0.48275
 Alpha virt. eigenvalues --    0.52571   0.54049   0.56320   0.56836   0.57617
 Alpha virt. eigenvalues --    0.59815   0.61062   0.62312   0.63066   0.63478
 Alpha virt. eigenvalues --    0.64284   0.65033   0.66624   0.66826   0.67554
 Alpha virt. eigenvalues --    0.68298   0.68799   0.69728   0.71038   0.72105
 Alpha virt. eigenvalues --    0.73571   0.73977   0.74702   0.75497   0.75679
 Alpha virt. eigenvalues --    0.76856   0.77279   0.78613   0.79689   0.80700
 Alpha virt. eigenvalues --    0.82071   0.83513   0.85006   0.86138   0.86893
 Alpha virt. eigenvalues --    0.87913   0.90913   0.92862   0.94250   0.94466
 Alpha virt. eigenvalues --    0.95604   0.97597   0.97956   0.98486   1.00898
 Alpha virt. eigenvalues --    1.01340   1.01589   1.03588   1.06717   1.07346
 Alpha virt. eigenvalues --    1.08471   1.09757   1.12362   1.13477   1.16728
 Alpha virt. eigenvalues --    1.19066   1.20689   1.21423   1.22650   1.28250
 Alpha virt. eigenvalues --    1.32761   1.35104   1.35613   1.40055   1.42127
 Alpha virt. eigenvalues --    1.46286   1.47421   1.50656   1.53502   1.55908
 Alpha virt. eigenvalues --    1.58307   1.60238   1.61127   1.61887   1.62458
 Alpha virt. eigenvalues --    1.63200   1.64827   1.65728   1.67036   1.68187
 Alpha virt. eigenvalues --    1.69869   1.71892   1.74588   1.74884   1.77554
 Alpha virt. eigenvalues --    1.78266   1.78797   1.80120   1.82779   1.83503
 Alpha virt. eigenvalues --    1.84098   1.85761   1.87637   1.88677   1.90505
 Alpha virt. eigenvalues --    1.93736   1.94359   1.97793   2.00246   2.01081
 Alpha virt. eigenvalues --    2.02042   2.04479   2.05534   2.06469   2.08834
 Alpha virt. eigenvalues --    2.10361   2.13200   2.14281   2.14788   2.17074
 Alpha virt. eigenvalues --    2.18694   2.20021   2.21716   2.23418   2.27323
 Alpha virt. eigenvalues --    2.30051   2.30972   2.35293   2.36125   2.39051
 Alpha virt. eigenvalues --    2.43307   2.50060   2.52039   2.54144   2.55402
 Alpha virt. eigenvalues --    2.56225   2.57861   2.61066   2.63694   2.64744
 Alpha virt. eigenvalues --    2.66092   2.69154   2.70130   2.71650   2.72514
 Alpha virt. eigenvalues --    2.73621   2.77360   2.78793   2.79825   2.80870
 Alpha virt. eigenvalues --    2.81961   2.83496   2.84079   2.85666   2.86774
 Alpha virt. eigenvalues --    2.88724   2.89987   2.93100   2.95091   2.96051
 Alpha virt. eigenvalues --    2.97612   3.00079   3.02840   3.06441   3.08569
 Alpha virt. eigenvalues --    3.10024   3.13774   3.16389   3.20959   3.26713
 Alpha virt. eigenvalues --    3.32373   3.45313   3.46727   3.53583   3.59022
 Alpha virt. eigenvalues --    3.63505   3.66539   3.68158   3.79807   3.86858
 Alpha virt. eigenvalues --    3.88907   3.91111   3.94254   4.05131   4.07657
 Alpha virt. eigenvalues --    4.15189   4.20990   4.24569   4.30000   4.93340
 Alpha virt. eigenvalues --    4.98318   5.17001  14.79434  23.75924  24.07131
 Alpha virt. eigenvalues --   24.07678  24.09112  24.10019  24.16530  24.23833
 Alpha virt. eigenvalues --   24.32562  35.73273
          Condensed to atoms (all electrons):
               1          2          3          4          5          6
     1  C    6.009427   1.021073  -0.722325  -0.573500  -0.373122   0.714292
     2  C    1.021073   8.495824   0.300198  -3.293910  -0.785506  -0.341606
     3  C   -0.722325   0.300198  13.679481  -3.008938  -4.731147   0.541344
     4  C   -0.573500  -3.293910  -3.008938  12.780181   1.998059  -1.122039
     5  C   -0.373122  -0.785506  -4.731147   1.998059  10.051757  -0.332510
     6  C    0.714292  -0.341606   0.541344  -1.122039  -0.332510   6.778806
     7  H    0.430454  -0.043937   0.002388   0.003216  -0.014588  -0.034477
     8  H   -0.062190   0.357698  -0.137245   0.107026   0.077467  -0.032619
     9  H    0.008331   0.014125  -0.079641  -0.033370   0.553366  -0.100725
    10  H   -0.048329  -0.007821   0.014808   0.047173  -0.028762   0.341497
    11  N    0.009203   0.109432   0.175462  -0.039737  -0.564845   0.035176
    12  B    0.072745   0.221770  -0.058291  -0.069096  -0.051678   0.076680
    13  C    0.001678   0.006051  -0.078478  -0.067478  -0.007373   0.008919
    14  H    0.008393  -0.040641   0.035387   0.050926   0.001369  -0.003758
    15  H    0.002657   0.037429   0.102635  -0.067883  -0.061776  -0.002254
    16  H   -0.001325  -0.026716  -0.094039   0.034437   0.059506   0.005886
    17  C   -0.012290   0.048678  -0.034379   0.019475  -0.066900  -0.233309
    18  H    0.002380   0.006301  -0.027772  -0.051760   0.075173  -0.015863
    19  H    0.001993  -0.011596  -0.016630  -0.017160   0.008359   0.026772
    20  H   -0.001447   0.003587  -0.002230   0.012544   0.020357  -0.009057
    21  H    0.045174   0.307096  -0.201484  -0.250879  -0.049012   0.019646
    22  H   -0.006106  -0.207131  -0.226351   0.327584   0.037355   0.004493
               7          8          9         10         11         12
     1  C    0.430454  -0.062190   0.008331  -0.048329   0.009203   0.072745
     2  C   -0.043937   0.357698   0.014125  -0.007821   0.109432   0.221770
     3  C    0.002388  -0.137245  -0.079641   0.014808   0.175462  -0.058291
     4  C    0.003216   0.107026  -0.033370   0.047173  -0.039737  -0.069096
     5  C   -0.014588   0.077467   0.553366  -0.028762  -0.564845  -0.051678
     6  C   -0.034477  -0.032619  -0.100725   0.341497   0.035176   0.076680
     7  H    0.467287  -0.007541   0.000452  -0.006560   0.000151   0.000061
     8  H   -0.007541   0.497477   0.001273   0.000971  -0.005454  -0.035735
     9  H    0.000452   0.001273   0.502265  -0.008421  -0.034495  -0.001669
    10  H   -0.006560   0.000971  -0.008421   0.464349  -0.002061   0.000031
    11  N    0.000151  -0.005454  -0.034495  -0.002061   6.949176   0.009190
    12  B    0.000061  -0.035735  -0.001669   0.000031   0.009190   4.094221
    13  C   -0.000125   0.000867  -0.001428  -0.000193   0.190285   0.005367
    14  H    0.000345  -0.000712  -0.001053  -0.000178  -0.063775  -0.036249
    15  H    0.000055  -0.001187  -0.001391   0.000080  -0.043587  -0.019293
    16  H   -0.000041   0.000843   0.003191  -0.000277  -0.084862   0.019739
    17  C   -0.001099   0.001207   0.016896   0.002343   0.247434  -0.017800
    18  H    0.000092  -0.000243  -0.007254  -0.000240  -0.044850  -0.006587
    19  H   -0.000023  -0.000228  -0.010038   0.000309  -0.052674   0.004537
    20  H   -0.000082   0.000201   0.005172   0.000234  -0.053409  -0.004913
    21  H    0.000055  -0.010263  -0.000244  -0.000105   0.008619   0.508006
    22  H    0.000246  -0.002091  -0.001597   0.000085  -0.010756   0.463742
              13         14         15         16         17         18
     1  C    0.001678   0.008393   0.002657  -0.001325  -0.012290   0.002380
     2  C    0.006051  -0.040641   0.037429  -0.026716   0.048678   0.006301
     3  C   -0.078478   0.035387   0.102635  -0.094039  -0.034379  -0.027772
     4  C   -0.067478   0.050926  -0.067883   0.034437   0.019475  -0.051760
     5  C   -0.007373   0.001369  -0.061776   0.059506  -0.066900   0.075173
     6  C    0.008919  -0.003758  -0.002254   0.005886  -0.233309  -0.015863
     7  H   -0.000125   0.000345   0.000055  -0.000041  -0.001099   0.000092
     8  H    0.000867  -0.000712  -0.001187   0.000843   0.001207  -0.000243
     9  H   -0.001428  -0.001053  -0.001391   0.003191   0.016896  -0.007254
    10  H   -0.000193  -0.000178   0.000080  -0.000277   0.002343  -0.000240
    11  N    0.190285  -0.063775  -0.043587  -0.084862   0.247434  -0.044850
    12  B    0.005367  -0.036249  -0.019293   0.019739  -0.017800  -0.006587
    13  C    5.255624   0.398134   0.401076   0.447577  -0.075547   0.000192
    14  H    0.398134   0.573386  -0.028834  -0.037931  -0.004295  -0.000993
    15  H    0.401076  -0.028834   0.527141  -0.048985  -0.009904  -0.000451
    16  H    0.447577  -0.037931  -0.048985   0.565737   0.008419   0.000412
    17  C   -0.075547  -0.004295  -0.009904   0.008419   5.314032   0.430899
    18  H    0.000192  -0.000993  -0.000451   0.000412   0.430899   0.543540
    19  H   -0.002453  -0.004158   0.001224   0.005940   0.406578  -0.047202
    20  H    0.000516   0.003576   0.001126  -0.008048   0.406009  -0.019027
    21  H   -0.002864  -0.000684   0.000600  -0.000207  -0.001078  -0.000295
    22  H   -0.004510   0.014430  -0.003136  -0.002864   0.000595   0.001831
              19         20         21         22
     1  C    0.001993  -0.001447   0.045174  -0.006106
     2  C   -0.011596   0.003587   0.307096  -0.207131
     3  C   -0.016630  -0.002230  -0.201484  -0.226351
     4  C   -0.017160   0.012544  -0.250879   0.327584
     5  C    0.008359   0.020357  -0.049012   0.037355
     6  C    0.026772  -0.009057   0.019646   0.004493
     7  H   -0.000023  -0.000082   0.000055   0.000246
     8  H   -0.000228   0.000201  -0.010263  -0.002091
     9  H   -0.010038   0.005172  -0.000244  -0.001597
    10  H    0.000309   0.000234  -0.000105   0.000085
    11  N   -0.052674  -0.053409   0.008619  -0.010756
    12  B    0.004537  -0.004913   0.508006   0.463742
    13  C   -0.002453   0.000516  -0.002864  -0.004510
    14  H   -0.004158   0.003576  -0.000684   0.014430
    15  H    0.001224   0.001126   0.000600  -0.003136
    16  H    0.005940  -0.008048  -0.000207  -0.002864
    17  C    0.406578   0.406009  -0.001078   0.000595
    18  H   -0.047202  -0.019027  -0.000295   0.001831
    19  H    0.554393  -0.037749  -0.000074  -0.000135
    20  H   -0.037749   0.497760  -0.000215   0.001048
    21  H   -0.000074  -0.000215   0.649557  -0.023625
    22  H   -0.000135   0.001048  -0.023625   0.655762
 Mulliken charges:
               1
     1  C   -0.527167
     2  C   -0.170397
     3  C    0.567246
     4  C   -0.784869
     5  C    0.184450
     6  C   -0.325294
     7  H    0.203672
     8  H    0.250478
     9  H    0.176254
    10  H    0.231066
    11  N    0.266375
    12  B   -0.174777
    13  C   -0.475836
    14  H    0.137316
    15  H    0.214658
    16  H    0.153607
    17  C   -0.445964
    18  H    0.161717
    19  H    0.190015
    20  H    0.184045
    21  H    0.002274
    22  H   -0.018869
 Sum of Mulliken charges =  -0.00000
 Mulliken charges with hydrogens summed into heavy atoms:
               1
     1  C   -0.323495
     2  C    0.080080
     3  C    0.567246
     4  C   -0.784869
     5  C    0.360705
     6  C   -0.094229
    11  N    0.266375
    12  B   -0.191372
    13  C    0.029746
    17  C    0.089813
 Electronic spatial extent (au):  <R**2>=           4056.6769
 Charge=             -0.0000 electrons
 Dipole moment (field-independent basis, Debye):
    X=             -1.4038    Y=              2.3227    Z=             -0.3925  Tot=              2.7422
 Quadrupole moment (field-independent basis, Debye-Ang):
   XX=            -63.5652   YY=            -41.3213   ZZ=            -63.2588
   XY=              0.5944   XZ=              1.4295   YZ=             -3.9625
 Traceless Quadrupole moment (field-independent basis, Debye-Ang):
   XX=             -7.5168   YY=             14.7271   ZZ=             -7.2104
   XY=              0.5944   XZ=              1.4295   YZ=             -3.9625
 Octapole moment (field-independent basis, Debye-Ang**2):
  XXX=           -162.5718  YYY=           -431.7131  ZZZ=            -17.3956  XYY=            -26.4573
  XXY=           -182.4679  XXZ=             -3.3586  XZZ=            -44.5014  YZZ=           -187.1252
  YYZ=            -22.6801  XYZ=              6.9243
 Hexadecapole moment (field-independent basis, Debye-Ang**3):
 XXXX=          -1088.2926 YYYY=          -3716.0762 ZZZZ=           -259.8222 XXXY=           -537.7218
 XXXZ=            -31.2181 YYYX=           -369.6881 YYYZ=             11.3936 ZZZX=            -31.0560
 ZZZY=             98.8486 XXYY=           -857.9261 XXZZ=           -214.4230 YYZZ=           -763.6551
 XXYZ=             44.4141 YYXZ=             10.6259 ZZXY=           -166.6445
 N-N= 4.954162795623D+02 E-N=-1.898928828821D+03  KE= 3.898283147713D+02
 Breneman (CHELPG) radii used.
 Generate Potential Derived Charges using the Breneman model, NDens= 1.
 Grid spacing= 0.300 Box extension= 2.800
 NStep X,Y,Z=   40     41     31   Total possible points=       50840
 Number of Points to Fit=   13978

 **********************************************************************

            Electrostatic Properties Using The SCF Density.

 **********************************************************************

       Atomic Center    1 is at  -0.637262  0.890170  0.772636
       Atomic Center    2 is at   0.727627  1.070885  0.902870
       Atomic Center    3 is at   1.392812  2.224117  0.437482
       Atomic Center    4 is at   0.600017  3.281167 -0.105283
       Atomic Center    5 is at  -0.783778  3.073788 -0.264965
       Atomic Center    6 is at  -1.380063  1.899670  0.163456
       Atomic Center    7 is at  -1.116525 -0.016234  1.122346
       Atomic Center    8 is at   1.330402  0.282147  1.342457
       Atomic Center    9 is at  -1.408450  3.847760 -0.690730
       Atomic Center   10 is at  -2.452039  1.782770  0.040634
       Atomic Center   11 is at   1.172584  4.480654 -0.480155
       Atomic Center   12 is at   2.913284  2.124731  0.305952
       Atomic Center   13 is at   2.194595  5.117184  0.337945
       Atomic Center   14 is at   2.472790  4.474241  1.171314
       Atomic Center   15 is at   3.094151  5.338886 -0.242918
       Atomic Center   16 is at   1.805126  6.056963  0.751326
       Atomic Center   17 is at   0.411897  5.421645 -1.276444
       Atomic Center   18 is at  -0.079731  4.914508 -2.107858
       Atomic Center   19 is at  -0.345921  5.962337 -0.689095
       Atomic Center   20 is at   1.101286  6.156538 -1.696282
       Atomic Center   21 is at   3.486817  1.234373  0.867346
       Atomic Center   22 is at   3.543289  2.858670 -0.396323
   13978 points will be used for fitting atomic charges
 Fitting point charges to electrostatic potential
 Charges from ESP fit, RMS=   0.00403 RRMS=   0.33492:
 ESP charges:
               1
     1  C   -0.193042
     2  C   -0.021400
     3  C   -0.310175
     4  C    0.373246
     5  C   -0.246471
     6  C   -0.035984
     7  H    0.106269
     8  H    0.086295
     9  H    0.117877
    10  H    0.100533
    11  N   -0.319824
    12  B    0.441720
    13  C    0.044006
    14  H    0.026957
    15  H    0.066504
    16  H    0.025004
    17  C   -0.077745
    18  H    0.055530
    19  H    0.067619
    20  H    0.082957
    21  H   -0.185467
    22  H   -0.204411
 Sum of ESP charges =  -0.00000
 ESP charges with hydrogens summed into heavy atoms:
               1
     1  C   -0.086773
     2  C    0.064895
     3  C   -0.310175
     4  C    0.373246
     5  C   -0.128594
     6  C    0.064549
    11  N   -0.319824
    12  B    0.051842
    13  C    0.162472
    17  C    0.128362
 Charge=  -0.00000 Dipole=    -1.3816     2.3024    -0.3528 Tot=     2.7082
 -----------------------------------------------------------------

              Electrostatic Properties (Atomic Units)

 -----------------------------------------------------------------
    Center     Electric         -------- Electric Field --------
               Potential          X             Y             Z
 -----------------------------------------------------------------
    1 Atom    -14.787025
    2 Atom    -14.775658
    3 Atom    -14.799384
    4 Atom    -14.724938
    5 Atom    -14.778814
    6 Atom    -14.767843
    7 Atom     -1.111539
    8 Atom     -1.115706
    9 Atom     -1.100671
   10 Atom     -1.101908
   11 Atom    -18.366076
   12 Atom    -11.482923
   13 Atom    -14.741514
   14 Atom     -1.104242
   15 Atom     -1.113547
   16 Atom     -1.107377
   17 Atom    -14.737995
   18 Atom     -1.101449
   19 Atom     -1.104669
   20 Atom     -1.099641
   21 Atom     -1.175895
   22 Atom     -1.175642
 -----------------------------------------------------------------
 Unable to Open any file for archive entry.
 1\1\GINC-IRENE4878\SP\RwB97XD\GenECP\C8H12B1N1\PENASFRA\09-Apr-2024\0\
 \# wb97xd/genecp scrf=(solvent=toluene,pcm) nosymm pop=(chelpg) scfcyc
 =300\\h_dimethylaniline_chelpg\\0,1\C,0,-0.637262,0.89017,0.772636\C,0
 ,0.727627,1.070885,0.90287\C,0,1.392812,2.224117,0.437482\C,0,0.600017
 ,3.281167,-0.105283\C,0,-0.783778,3.073788,-0.264965\C,0,-1.380063,1.8
 9967,0.163456\H,0,-1.116525,-0.016234,1.122346\H,0,1.330402,0.282147,1
 .342457\H,0,-1.40845,3.84776,-0.69073\H,0,-2.452039,1.78277,0.040634\N
 ,0,1.172584,4.480654,-0.480155\B,0,2.913284,2.124731,0.305952\C,0,2.19
 4595,5.117184,0.337945\H,0,2.47279,4.474241,1.171314\H,0,3.094151,5.33
 8886,-0.242918\H,0,1.805126,6.056963,0.751326\C,0,0.411897,5.421645,-1
 .276444\H,0,-0.079731,4.914508,-2.107858\H,0,-0.345921,5.962337,-0.689
 095\H,0,1.101286,6.156538,-1.696282\H,0,3.486817,1.234373,0.867346\H,0
 ,3.543289,2.85867,-0.396323\\Version=AS64L-G16RevC.02\HF=-391.6180484\
 RMSD=9.912e-09\Dipole=-0.5522785,0.9138296,-0.1544024\Quadrupole=-5.58
 85391,10.9492697,-5.3607306,0.4419498,1.0627755,-2.946042\PG=C01 [X(C8
 H12B1N1)]\\@
 The archive entry for this job was punched.


 I do not feel obliged to believe that the same God who
 has endowed us with sense, reason, and intellect has
 intended us to forgo their use.
                   --Galileo Galilei
 Job cpu time:       0 days  0 hours 33 minutes 13.5 seconds.
 Elapsed time:       0 days  0 hours  0 minutes 20.4 seconds.
 File lengths (MBytes):  RWF=    100 Int=      0 D2E=      0 Chk=      7 Scr=      1
 Normal termination of Gaussian 16 at Tue Apr  9 16:12:24 2024.
