 Entering Gaussian System, Link 0=/ccc/products/gaussian-16-C.02/system/default/g16/g16
 Input=h_fnmeimidazole_chelpg.gjf
 Output=h_fnmeimidazole_chelpg.log
 Initial command:
 /ccc/products/gaussian-16-C.02/system/default/g16/l1.exe "/ccc/scratch/cont003/gen7343/penasfra/flp/b-n_flp/h_fnmeimidazole/Reactant/Gau-468807.inp" -scrdir="/ccc/scratch/cont003/gen7343/penasfra/flp/b-n_flp/h_fnmeimidazole/Reactant/"
 Entering Link 1 = /ccc/products/gaussian-16-C.02/system/default/g16/l1.exe PID=    468856.
  
 Copyright (c) 1988-2021, Gaussian, Inc.  All Rights Reserved.
  
 This is part of the Gaussian(R) 16 program.  It is based on
 the Gaussian(R) 09 system (copyright 2009, Gaussian, Inc.),
 the Gaussian(R) 03 system (copyright 2003, Gaussian, Inc.),
 the Gaussian(R) 98 system (copyright 1998, Gaussian, Inc.),
 the Gaussian(R) 94 system (copyright 1995, Gaussian, Inc.),
 the Gaussian 92(TM) system (copyright 1992, Gaussian, Inc.),
 the Gaussian 90(TM) system (copyright 1990, Gaussian, Inc.),
 the Gaussian 88(TM) system (copyright 1988, Gaussian, Inc.),
 the Gaussian 86(TM) system (copyright 1986, Carnegie Mellon
 University), and the Gaussian 82(TM) system (copyright 1983,
 Carnegie Mellon University). Gaussian is a federally registered
 trademark of Gaussian, Inc.
  
 This software contains proprietary and confidential information,
 including trade secrets, belonging to Gaussian, Inc.
  
 This software is provided under written license and may be
 used, copied, transmitted, or stored only in accord with that
 written license.
  
 The following legend is applicable only to US Government
 contracts under FAR:
  
                    RESTRICTED RIGHTS LEGEND
  
 Use, reproduction and disclosure by the US Government is
 subject to restrictions as set forth in subparagraphs (a)
 and (c) of the Commercial Computer Software - Restricted
 Rights clause in FAR 52.227-19.
  
 Gaussian, Inc.
 340 Quinnipiac St., Bldg. 40, Wallingford CT 06492
  
  
 ---------------------------------------------------------------
 Warning -- This program may not be used in any manner that
 competes with the business of Gaussian, Inc. or will provide
 assistance to any competitor of Gaussian, Inc.  The licensee
 of this program is prohibited from giving any competitor of
 Gaussian, Inc. access to this program.  By using this program,
 the user acknowledges that Gaussian, Inc. is engaged in the
 business of creating and licensing software in the field of
 computational chemistry and represents and warrants to the
 licensee that it is not a competitor of Gaussian, Inc. and that
 it will not use this program in any manner prohibited above.
 ---------------------------------------------------------------
  

 Cite this work as:
 Gaussian 16, Revision C.02,
 M. J. Frisch, G. W. Trucks, H. B. Schlegel, G. E. Scuseria, 
 M. A. Robb, J. R. Cheeseman, G. Scalmani, V. Barone, 
 G. A. Petersson, H. Nakatsuji, X. Li, M. Caricato, A. V. Marenich, 
 J. Bloino, B. G. Janesko, R. Gomperts, B. Mennucci, H. P. Hratchian, 
 J. V. Ortiz, A. F. Izmaylov, J. L. Sonnenberg, D. Williams-Young, 
 F. Ding, F. Lipparini, F. Egidi, J. Goings, B. Peng, A. Petrone, 
 T. Henderson, D. Ranasinghe, V. G. Zakrzewski, J. Gao, N. Rega, 
 G. Zheng, W. Liang, M. Hada, M. Ehara, K. Toyota, R. Fukuda, 
 J. Hasegawa, M. Ishida, T. Nakajima, Y. Honda, O. Kitao, H. Nakai, 
 T. Vreven, K. Throssell, J. A. Montgomery, Jr., J. E. Peralta, 
 F. Ogliaro, M. J. Bearpark, J. J. Heyd, E. N. Brothers, K. N. Kudin, 
 V. N. Staroverov, T. A. Keith, R. Kobayashi, J. Normand, 
 K. Raghavachari, A. P. Rendell, J. C. Burant, S. S. Iyengar, 
 J. Tomasi, M. Cossi, J. M. Millam, M. Klene, C. Adamo, R. Cammi, 
 J. W. Ochterski, R. L. Martin, K. Morokuma, O. Farkas, 
 J. B. Foresman, and D. J. Fox, Gaussian, Inc., Wallingford CT, 2019.
 
 ******************************************
 Gaussian 16:  AS64L-G16RevC.02  7-Dec-2021
                 9-Apr-2024 
 ******************************************
 %nprocshared=128
 Will use up to  128 processors via shared memory.
 %mem=30GB
 %chk=h_fnmeimidazole_chelpg.chk
 ----------------------------------------------------------------------
 # wb97xd/genecp scrf=(solvent=toluene,pcm) nosymm pop=(chelpg) scfcyc=
 300
 ----------------------------------------------------------------------
 1/38=1,172=1/1;
 2/12=2,15=1,17=6,18=5,40=1/2;
 3/5=7,11=2,16=1,17=8,25=1,30=1,70=2201,72=13,74=-58/1,2,3;
 4//1;
 5/5=2,7=300,38=5,53=13/2;
 6/7=2,8=2,9=2,10=2,15=8,20=3,28=1/1,2;
 99/5=1,9=1/99;
 ----------------------
 h_fnmeimidazole_chelpg
 ----------------------
 Symbolic Z-matrix:
 Charge =  0 Multiplicity = 1
 C                     2.73843   1.62941   1.04778 
 H                     2.89669   2.22006   1.93677 
 C                     3.18729   0.36729   0.70792 
 N                     1.98749   2.08933   0.00722 
 N                     2.69701   0.05138  -0.57191 
 B                     4.06035  -0.53231   1.56423 
 C                     1.29446   3.36124  -0.12039 
 H                     1.67337   3.91191  -0.9815 
 H                     0.22297   3.19677  -0.23585 
 H                     1.47329   3.94075   0.78302 
 H                     4.40827  -0.13726   2.63974 
 H                     4.39762  -1.61131   1.18188 
 C                     2.0189    1.08218  -0.91173 
 F                     1.36535   1.24601  -2.04745 
 
                          Input orientation:                          
 ---------------------------------------------------------------------
 Center     Atomic      Atomic             Coordinates (Angstroms)
 Number     Number       Type             X           Y           Z
 ---------------------------------------------------------------------
      1          6           0        2.738433    1.629412    1.047781
      2          1           0        2.896685    2.220064    1.936767
      3          6           0        3.187288    0.367288    0.707920
      4          7           0        1.987494    2.089327    0.007221
      5          7           0        2.697006    0.051377   -0.571911
      6          5           0        4.060354   -0.532314    1.564229
      7          6           0        1.294463    3.361241   -0.120389
      8          1           0        1.673370    3.911911   -0.981502
      9          1           0        0.222972    3.196772   -0.235852
     10          1           0        1.473287    3.940745    0.783022
     11          1           0        4.408272   -0.137255    2.639735
     12          1           0        4.397619   -1.611312    1.181876
     13          6           0        2.018897    1.082185   -0.911733
     14          9           0        1.365345    1.246005   -2.047454
 ---------------------------------------------------------------------
                    Distance matrix (angstroms):
                    1          2          3          4          5
     1  C    0.000000
     2  H    1.078985   0.000000
     3  C    1.382003   2.242163   0.000000
     4  N    1.363157   2.137023   2.212669   0.000000
     5  N    2.261706   3.322129   1.406465   2.234288   0.000000
     6  B    2.585972   3.011394   1.518155   3.687007   2.600482
     7  C    2.539469   2.846277   3.637669   1.454078   3.623010
     8  H    3.234525   3.588195   4.208378   2.097155   4.014887
     9  H    3.229841   3.580918   4.205218   2.097393   4.015880
    10  H    2.648198   2.513550   3.963967   2.072203   4.296570
    11  H    2.905820   2.887215   2.340358   4.212833   3.643993
    12  H    3.643236   4.183552   2.367360   4.569819   2.955061
    13  C    2.157982   3.190491   2.121200   1.363744   1.279795
    14  F    3.407763   4.378106   3.418144   2.306502   2.318983
                    6          7          8          9         10
     6  B    0.000000
     7  C    5.064372   0.000000
     8  H    5.650626   1.090103   0.000000
     9  H    5.645518   1.090172   1.780750   0.000000
    10  H    5.226036   1.088097   1.776066   1.776200   0.000000
    11  H    1.197427   5.436319   6.081841   6.074658   5.356454
    12  H    1.193389   6.004311   6.527460   6.523442   6.287777
    13  C    3.592289   2.518953   2.851597   2.855458   3.367677
    14  F    4.844558   2.862311   2.887592   2.896966   3.909587
                   11         12         13         14
    11  H    0.000000
    12  H    2.073237   0.000000
    13  C    4.450738   4.158899   0.000000
    14  F    5.756957   5.271387   1.320541   0.000000
 Symmetry turned off by external request.
 Stoichiometry    C4H6BFN2
 Framework group  C1[X(C4H6BFN2)]
 Deg. of freedom    36
 Full point group                 C1      NOp   1
 Rotational constants (GHZ):           4.0189207           1.7995004           1.2528050
 General basis read from cards:  (5D, 7F)
 ======================================================================================================
                                       Pseudopotential Parameters
 ======================================================================================================
  Center     Atomic      Valence      Angular      Power
  Number     Number     Electrons     Momentum     of R      Exponent        Coefficient   SO-Coeffient
 ======================================================================================================
    1          6
                                   No pseudopotential on this center.
    2          1
                                   No pseudopotential on this center.
    3          6
                                   No pseudopotential on this center.
    4          7
                                   No pseudopotential on this center.
    5          7
                                   No pseudopotential on this center.
    6          5
                                   No pseudopotential on this center.
    7          6
                                   No pseudopotential on this center.
    8          1
                                   No pseudopotential on this center.
    9          1
                                   No pseudopotential on this center.
   10          1
                                   No pseudopotential on this center.
   11          1
                                   No pseudopotential on this center.
   12          1
                                   No pseudopotential on this center.
   13          6
                                   No pseudopotential on this center.
   14          9
                                   No pseudopotential on this center.
 ======================================================================================================
   218 basis functions,   342 primitive gaussians,   226 cartesian basis functions
    29 alpha electrons       29 beta electrons
       nuclear repulsion energy       351.4745743619 Hartrees.
 NAtoms=   14 NActive=   14 NUniq=   14 SFac= 1.00D+00 NAtFMM=   60 NAOKFM=F Big=F
 Integral buffers will be    131072 words long.
 Raffenetti 2 integral format.
 Two-electron integral symmetry is turned off.
 Nuclear repulsion after empirical dispersion term =      351.4684116443 Hartrees.
 ------------------------------------------------------------------------------
 Polarizable Continuum Model (PCM)
 =================================
 Model                : PCM.
 Atomic radii         : UFF (Universal Force Field).
 Polarization charges : Total charges.
 Charge compensation  : None.
 Solution method      : On-the-fly selection.
 Cavity type          : Scaled VdW (van der Waals Surface) (Alpha=1.100).
 Cavity algorithm     : GePol (No added spheres)
                        Default sphere list used, NSphG=   14.
                        Lebedev-Laikov grids with approx.  5.0 points / Ang**2.
                        Smoothing algorithm: York/Karplus (Gamma=1.0000).
                        Polarization charges: spherical gaussians, with
                                              point-specific exponents (IZeta= 3).
                        Self-potential: point-specific (ISelfS= 7).
                        Self-field    : sphere-specific E.n sum rule (ISelfD= 2).
 Solvent              : Toluene, Eps=   2.374100 Eps(inf)=   2.238315
 ------------------------------------------------------------------------------
 Spheres list:
 ISph  on   Nord     Re0    Alpha      Xe            Ye            Ze
    1   C      1    1.9255  1.100      2.738433      1.629412      1.047781
    2   H      2    1.4430  1.100      2.896685      2.220064      1.936767
    3   C      3    1.9255  1.100      3.187288      0.367288      0.707920
    4   N      4    1.8300  1.100      1.987494      2.089327      0.007221
    5   N      5    1.8300  1.100      2.697006      0.051377     -0.571911
    6   B      6    2.0415  1.100      4.060354     -0.532314      1.564229
    7   C      7    1.9255  1.100      1.294463      3.361241     -0.120389
    8   H      8    1.4430  1.100      1.673370      3.911911     -0.981502
    9   H      9    1.4430  1.100      0.222972      3.196772     -0.235852
   10   H     10    1.4430  1.100      1.473287      3.940745      0.783022
   11   H     11    1.4430  1.100      4.408272     -0.137255      2.639735
   12   H     12    1.4430  1.100      4.397619     -1.611312      1.181876
   13   C     13    1.9255  1.100      2.018897      1.082185     -0.911733
   14   F     14    1.6820  1.100      1.365345      1.246005     -2.047454
 ------------------------------------------------------------------------------
 One-electron integrals computed using PRISM.
   1 Symmetry operations used in ECPInt.
 ECPInt:  NShTT=    3081 NPrTT=   10893 LenC2=    3037 LenP2D=    8315.
 LDataN:  DoStor=T MaxTD1= 4 Len=   56
 NBasis=   218 RedAO= T EigKep=  1.22D-05  NBF=   218
 NBsUse=   218 1.00D-06 EigRej= -1.00D+00 NBFU=   218
 ExpMin= 3.15D-02 ExpMax= 1.14D+04 ExpMxC= 1.72D+03 IAcc=3 IRadAn=         5 AccDes= 0.00D+00
 Harris functional with IExCor= 4639 and IRadAn=       5 diagonalized for initial guess.
 HarFok:  IExCor= 4639 AccDes= 0.00D+00 IRadAn=         5 IDoV= 1 UseB2=F ITyADJ=14
 ICtDFT=  3500011 ScaDFX=  1.000000  1.000000  1.000000  1.000000
 FoFCou: FMM=F IPFlag=           0 FMFlag=      100000 FMFlg1=           0
         NFxFlg=           0 DoJE=T BraDBF=F KetDBF=T FulRan=T
         wScrn=  0.000000 ICntrl=       500 IOpCl=  0 I1Cent=   200000004 NGrid=           0
         NMat0=    1 NMatS0=      1 NMatT0=    0 NMatD0=    1 NMtDS0=    0 NMtDT0=    0
 Symmetry not used in FoFCou.
 Requested convergence on RMS density matrix=1.00D-08 within 300 cycles.
 Requested convergence on MAX density matrix=1.00D-06.
 Requested convergence on             energy=1.00D-06.
 No special actions if energy rises.
 Inv3:  Mode=1 IEnd=     5362707.
 Iteration    1 A*A^-1 deviation from unit magnitude is 3.44D-15 for   1327.
 Iteration    1 A*A^-1 deviation from orthogonality  is 2.27D-15 for   1321    384.
 Iteration    1 A^-1*A deviation from unit magnitude is 2.89D-15 for    511.
 Iteration    1 A^-1*A deviation from orthogonality  is 1.42D-15 for    823    126.
 Error on total polarization charges =  0.00879
 SCF Done:  E(RwB97XD) =  -390.193449136     A.U. after   15 cycles
            NFock= 15  Conv=0.34D-08     -V/T= 2.0036

 **********************************************************************

            Population analysis using the SCF Density.

 **********************************************************************

 Alpha  occ. eigenvalues --  -24.85525 -14.52273 -14.43302 -10.43459 -10.34699
 Alpha  occ. eigenvalues --  -10.34217 -10.29750  -6.84279  -1.37957  -1.15424
 Alpha  occ. eigenvalues --   -1.02078  -0.87364  -0.83569  -0.73694  -0.71501
 Alpha  occ. eigenvalues --   -0.65534  -0.62142  -0.59700  -0.58785  -0.56187
 Alpha  occ. eigenvalues --   -0.56135  -0.52303  -0.51059  -0.49859  -0.44232
 Alpha  occ. eigenvalues --   -0.41616  -0.38286  -0.38074  -0.32964
 Alpha virt. eigenvalues --    0.00636   0.03591   0.05746   0.06336   0.06523
 Alpha virt. eigenvalues --    0.08150   0.08229   0.08699   0.10180   0.10375
 Alpha virt. eigenvalues --    0.10712   0.11528   0.13048   0.13391   0.13660
 Alpha virt. eigenvalues --    0.14942   0.15213   0.16026   0.16168   0.17635
 Alpha virt. eigenvalues --    0.17768   0.18899   0.19051   0.19603   0.21172
 Alpha virt. eigenvalues --    0.21325   0.21810   0.23266   0.24060   0.24579
 Alpha virt. eigenvalues --    0.24633   0.25543   0.26695   0.27634   0.28089
 Alpha virt. eigenvalues --    0.28948   0.31159   0.31298   0.33260   0.33362
 Alpha virt. eigenvalues --    0.33696   0.34537   0.34877   0.36601   0.37719
 Alpha virt. eigenvalues --    0.39039   0.39330   0.40058   0.44434   0.45811
 Alpha virt. eigenvalues --    0.48133   0.49603   0.50378   0.50821   0.51027
 Alpha virt. eigenvalues --    0.52781   0.55332   0.58572   0.60294   0.61557
 Alpha virt. eigenvalues --    0.63999   0.64039   0.66604   0.67616   0.69742
 Alpha virt. eigenvalues --    0.71016   0.71931   0.72267   0.72383   0.73821
 Alpha virt. eigenvalues --    0.78045   0.80545   0.83231   0.85430   0.87031
 Alpha virt. eigenvalues --    0.88005   0.90845   0.91372   0.93236   0.94753
 Alpha virt. eigenvalues --    0.97654   0.99192   0.99850   1.02793   1.03728
 Alpha virt. eigenvalues --    1.07070   1.09672   1.13055   1.19621   1.20473
 Alpha virt. eigenvalues --    1.24625   1.25965   1.28158   1.29833   1.33651
 Alpha virt. eigenvalues --    1.37018   1.44120   1.46399   1.47900   1.48175
 Alpha virt. eigenvalues --    1.48531   1.49212   1.52271   1.57181   1.60124
 Alpha virt. eigenvalues --    1.62721   1.64321   1.66610   1.69106   1.71716
 Alpha virt. eigenvalues --    1.71764   1.74527   1.78947   1.80202   1.81508
 Alpha virt. eigenvalues --    1.85793   1.89564   1.90860   1.93169   1.94324
 Alpha virt. eigenvalues --    2.02533   2.10011   2.10885   2.11284   2.12146
 Alpha virt. eigenvalues --    2.13166   2.17222   2.18415   2.20381   2.25411
 Alpha virt. eigenvalues --    2.26645   2.28402   2.34365   2.47004   2.49647
 Alpha virt. eigenvalues --    2.53152   2.54855   2.59489   2.60910   2.65248
 Alpha virt. eigenvalues --    2.65453   2.67798   2.72331   2.74015   2.74950
 Alpha virt. eigenvalues --    2.76870   2.81589   2.86602   2.89755   2.91458
 Alpha virt. eigenvalues --    2.96265   2.97435   2.98240   3.04518   3.06420
 Alpha virt. eigenvalues --    3.09428   3.16320   3.21102   3.38284   3.46502
 Alpha virt. eigenvalues --    3.61499   3.68067   3.81224   3.81880   3.83719
 Alpha virt. eigenvalues --    3.83751   3.89336   3.93718   4.01398   4.03004
 Alpha virt. eigenvalues --    4.09549   4.16603   4.19693   4.57163   4.74831
 Alpha virt. eigenvalues --    5.02069   5.10661   5.34152   6.39196   6.52021
 Alpha virt. eigenvalues --    6.87956  14.77955  23.91292  23.96272  24.05407
 Alpha virt. eigenvalues --   24.22087  35.61961  35.83580  66.91840
          Condensed to atoms (all electrons):
               1          2          3          4          5          6
     1  C    5.777465   0.386006  -0.051794   0.466133   0.077487   0.013796
     2  H    0.386006   0.456613  -0.008595  -0.048030  -0.002524  -0.023111
     3  C   -0.051794  -0.008595   6.119999  -0.349841   0.158353   0.250584
     4  N    0.466133  -0.048030  -0.349841   6.797646   0.005010   0.018450
     5  N    0.077487  -0.002524   0.158353   0.005010   6.710480  -0.053856
     6  B    0.013796  -0.023111   0.250584   0.018450  -0.053856   3.939697
     7  C   -0.124546  -0.021507   0.018165   0.183311   0.028094   0.011202
     8  H   -0.003077   0.002311  -0.009500  -0.027856  -0.000757  -0.000892
     9  H   -0.003294   0.002355  -0.009257  -0.027406  -0.000802  -0.000923
    10  H   -0.010441  -0.015465   0.029109  -0.048373   0.000786   0.002569
    11  H    0.058600  -0.000989  -0.152897  -0.008656   0.005091   0.480863
    12  H   -0.045567  -0.003819  -0.007066   0.001695  -0.009421   0.476229
    13  C   -0.404114   0.024742   0.086778   0.164433   0.319756  -0.036869
    14  F    0.028788   0.001154   0.030943  -0.108513  -0.076712  -0.006251
               7          8          9         10         11         12
     1  C   -0.124546  -0.003077  -0.003294  -0.010441   0.058600  -0.045567
     2  H   -0.021507   0.002311   0.002355  -0.015465  -0.000989  -0.003819
     3  C    0.018165  -0.009500  -0.009257   0.029109  -0.152897  -0.007066
     4  N    0.183311  -0.027856  -0.027406  -0.048373  -0.008656   0.001695
     5  N    0.028094  -0.000757  -0.000802   0.000786   0.005091  -0.009421
     6  B    0.011202  -0.000892  -0.000923   0.002569   0.480863   0.476229
     7  C    5.155007   0.403718   0.403259   0.411014  -0.000329   0.000239
     8  H    0.403718   0.514597  -0.050281  -0.027909  -0.000248   0.000033
     9  H    0.403259  -0.050281   0.514510  -0.028013  -0.000252   0.000037
    10  H    0.411014  -0.027909  -0.028013   0.512957   0.000341   0.000039
    11  H   -0.000329  -0.000248  -0.000252   0.000341   0.624415  -0.000478
    12  H    0.000239   0.000033   0.000037   0.000039  -0.000478   0.647635
    13  C   -0.065933  -0.009696  -0.009975  -0.002669  -0.004734  -0.004224
    14  F   -0.000934  -0.004659  -0.004835  -0.000471   0.000342   0.000427
              13         14
     1  C   -0.404114   0.028788
     2  H    0.024742   0.001154
     3  C    0.086778   0.030943
     4  N    0.164433  -0.108513
     5  N    0.319756  -0.076712
     6  B   -0.036869  -0.006251
     7  C   -0.065933  -0.000934
     8  H   -0.009696  -0.004659
     9  H   -0.009975  -0.004835
    10  H   -0.002669  -0.000471
    11  H   -0.004734   0.000342
    12  H   -0.004224   0.000427
    13  C    5.409610   0.243808
    14  F    0.243808   9.063980
 Mulliken charges:
               1
     1  C   -0.165444
     2  H    0.250857
     3  C   -0.104982
     4  N   -0.018003
     5  N   -0.160986
     6  B   -0.071488
     7  C   -0.400760
     8  H    0.214214
     9  H    0.214876
    10  H    0.176527
    11  H   -0.001071
    12  H   -0.055758
    13  C    0.289085
    14  F   -0.167067
 Sum of Mulliken charges =  -0.00000
 Mulliken charges with hydrogens summed into heavy atoms:
               1
     1  C    0.085413
     3  C   -0.104982
     4  N   -0.018003
     5  N   -0.160986
     6  B   -0.128317
     7  C    0.204856
    13  C    0.289085
    14  F   -0.167067
 Electronic spatial extent (au):  <R**2>=           2378.4799
 Charge=             -0.0000 electrons
 Dipole moment (field-independent basis, Debye):
    X=             -2.0542    Y=              5.7618    Z=              1.5505  Tot=              6.3105
 Quadrupole moment (field-independent basis, Debye-Ang):
   XX=            -57.1747   YY=            -31.7008   ZZ=            -49.6547
   XY=             10.9588   XZ=              2.2079   YZ=              1.9873
 Traceless Quadrupole moment (field-independent basis, Debye-Ang):
   XX=            -10.9980   YY=             14.4759   ZZ=             -3.4780
   XY=             10.9588   XZ=              2.2079   YZ=              1.9873
 Octapole moment (field-independent basis, Debye-Ang**2):
  XXX=           -394.6351  YYY=           -106.3407  ZZZ=             -8.1337  XYY=            -95.8544
  XXY=            -28.3673  XXZ=             -5.4137  XZZ=           -124.2765  YZZ=            -48.2873
  YYZ=              0.6772  XYZ=              5.8067
 Hexadecapole moment (field-independent basis, Debye-Ang**3):
 XXXX=          -2239.9629 YYYY=           -716.7983 ZZZZ=           -436.1549 XXXY=           -190.8861
 XXXZ=           -183.5952 YYYX=           -170.6518 YYYZ=             54.5108 ZZZX=           -156.0906
 ZZZY=             60.6179 XXYY=           -469.8834 XXZZ=           -449.2789 YYZZ=           -200.6895
 XXYZ=             34.1396 YYXZ=            -39.3876 ZZXY=            -62.3327
 N-N= 3.514684116443D+02 E-N=-1.615724282071D+03  KE= 3.887851864395D+02
 Breneman (CHELPG) radii used.
 Generate Potential Derived Charges using the Breneman model, NDens= 1.
 Grid spacing= 0.300 Box extension= 2.800
 NStep X,Y,Z=   34     39     36   Total possible points=       47736
 Number of Points to Fit=   10690

 **********************************************************************

            Electrostatic Properties Using The SCF Density.

 **********************************************************************

       Atomic Center    1 is at   2.738433  1.629412  1.047781
       Atomic Center    2 is at   2.896685  2.220064  1.936767
       Atomic Center    3 is at   3.187288  0.367288  0.707920
       Atomic Center    4 is at   1.987494  2.089327  0.007221
       Atomic Center    5 is at   2.697006  0.051377 -0.571911
       Atomic Center    6 is at   4.060354 -0.532314  1.564229
       Atomic Center    7 is at   1.294463  3.361241 -0.120389
       Atomic Center    8 is at   1.673370  3.911911 -0.981502
       Atomic Center    9 is at   0.222972  3.196772 -0.235852
       Atomic Center   10 is at   1.473287  3.940745  0.783022
       Atomic Center   11 is at   4.408272 -0.137255  2.639735
       Atomic Center   12 is at   4.397619 -1.611312  1.181876
       Atomic Center   13 is at   2.018897  1.082185 -0.911733
       Atomic Center   14 is at   1.365345  1.246005 -2.047454
   10690 points will be used for fitting atomic charges
 Fitting point charges to electrostatic potential
 Charges from ESP fit, RMS=   0.00339 RRMS=   0.13589:
 ESP charges:
               1
     1  C   -0.374908
     2  H    0.219677
     3  C    0.130993
     4  N    0.121620
     5  N   -0.673631
     6  B    0.389959
     7  C   -0.252952
     8  H    0.113522
     9  H    0.114122
    10  H    0.149844
    11  H   -0.196956
    12  H   -0.157178
    13  C    0.664634
    14  F   -0.248746
 Sum of ESP charges =   0.00000
 ESP charges with hydrogens summed into heavy atoms:
               1
     1  C   -0.155231
     3  C    0.130993
     4  N    0.121620
     5  N   -0.673631
     6  B    0.035825
     7  C    0.124536
    13  C    0.664634
    14  F   -0.248746
 Charge=   0.00000 Dipole=    -1.9838     5.6468     1.5783 Tot=     6.1897
 -----------------------------------------------------------------

              Electrostatic Properties (Atomic Units)

 -----------------------------------------------------------------
    Center     Electric         -------- Electric Field --------
               Potential          X             Y             Z
 -----------------------------------------------------------------
    1 Atom    -14.716205
    2 Atom     -1.047065
    3 Atom    -14.769987
    4 Atom    -18.295269
    5 Atom    -18.415202
    6 Atom    -11.478792
    7 Atom    -14.692657
    8 Atom     -1.062477
    9 Atom     -1.062558
   10 Atom     -1.051667
   11 Atom     -1.166326
   12 Atom     -1.176214
   13 Atom    -14.626443
   14 Atom    -26.556643
 -----------------------------------------------------------------
 Unable to Open any file for archive entry.
 1\1\GINC-IRENE4715\SP\RwB97XD\GenECP\C4H6B1F1N2\PENASFRA\09-Apr-2024\0
 \\# wb97xd/genecp scrf=(solvent=toluene,pcm) nosymm pop=(chelpg) scfcy
 c=300\\h_fnmeimidazole_chelpg\\0,1\C,0,2.738433,1.629412,1.047781\H,0,
 2.896685,2.220064,1.936767\C,0,3.187288,0.367288,0.70792\N,0,1.987494,
 2.089327,0.007221\N,0,2.697006,0.051377,-0.571911\B,0,4.060354,-0.5323
 14,1.564229\C,0,1.294463,3.361241,-0.120389\H,0,1.67337,3.911911,-0.98
 1502\H,0,0.222972,3.196772,-0.235852\H,0,1.473287,3.940745,0.783022\H,
 0,4.408272,-0.137255,2.639735\H,0,4.397619,-1.611312,1.181876\C,0,2.01
 8897,1.082185,-0.911733\F,0,1.365345,1.246005,-2.047454\\Version=AS64L
 -G16RevC.02\HF=-390.1934491\RMSD=3.413e-09\Dipole=-0.808168,2.2668665,
 0.6100317\Quadrupole=-8.1767106,10.7624836,-2.5857731,8.147581,1.64150
 17,1.4775384\PG=C01 [X(C4H6B1F1N2)]\\@
 The archive entry for this job was punched.


 MEN HAVE BECOME THE TOOLS OF THEIR TOOLS... THOREAU   
 Job cpu time:       0 days  0 hours 20 minutes 33.8 seconds.
 Elapsed time:       0 days  0 hours  0 minutes 12.3 seconds.
 File lengths (MBytes):  RWF=     61 Int=      0 D2E=      0 Chk=      4 Scr=      1
 Normal termination of Gaussian 16 at Tue Apr  9 16:44:54 2024.
