 Entering Gaussian System, Link 0=/ccc/products/gaussian-16-C.02/system/default/g16/g16
 Input=h_indole_chelpg.gjf
 Output=h_indole_chelpg.log
 Initial command:
 /ccc/products/gaussian-16-C.02/system/default/g16/l1.exe "/ccc/scratch/cont003/gen7343/penasfra/flp/b-n_flp/h_indole/reac/Gau-357796.inp" -scrdir="/ccc/scratch/cont003/gen7343/penasfra/flp/b-n_flp/h_indole/reac/"
 Entering Link 1 = /ccc/products/gaussian-16-C.02/system/default/g16/l1.exe PID=    357845.
  
 Copyright (c) 1988-2021, Gaussian, Inc.  All Rights Reserved.
  
 This is part of the Gaussian(R) 16 program.  It is based on
 the Gaussian(R) 09 system (copyright 2009, Gaussian, Inc.),
 the Gaussian(R) 03 system (copyright 2003, Gaussian, Inc.),
 the Gaussian(R) 98 system (copyright 1998, Gaussian, Inc.),
 the Gaussian(R) 94 system (copyright 1995, Gaussian, Inc.),
 the Gaussian 92(TM) system (copyright 1992, Gaussian, Inc.),
 the Gaussian 90(TM) system (copyright 1990, Gaussian, Inc.),
 the Gaussian 88(TM) system (copyright 1988, Gaussian, Inc.),
 the Gaussian 86(TM) system (copyright 1986, Carnegie Mellon
 University), and the Gaussian 82(TM) system (copyright 1983,
 Carnegie Mellon University). Gaussian is a federally registered
 trademark of Gaussian, Inc.
  
 This software contains proprietary and confidential information,
 including trade secrets, belonging to Gaussian, Inc.
  
 This software is provided under written license and may be
 used, copied, transmitted, or stored only in accord with that
 written license.
  
 The following legend is applicable only to US Government
 contracts under FAR:
  
                    RESTRICTED RIGHTS LEGEND
  
 Use, reproduction and disclosure by the US Government is
 subject to restrictions as set forth in subparagraphs (a)
 and (c) of the Commercial Computer Software - Restricted
 Rights clause in FAR 52.227-19.
  
 Gaussian, Inc.
 340 Quinnipiac St., Bldg. 40, Wallingford CT 06492
  
  
 ---------------------------------------------------------------
 Warning -- This program may not be used in any manner that
 competes with the business of Gaussian, Inc. or will provide
 assistance to any competitor of Gaussian, Inc.  The licensee
 of this program is prohibited from giving any competitor of
 Gaussian, Inc. access to this program.  By using this program,
 the user acknowledges that Gaussian, Inc. is engaged in the
 business of creating and licensing software in the field of
 computational chemistry and represents and warrants to the
 licensee that it is not a competitor of Gaussian, Inc. and that
 it will not use this program in any manner prohibited above.
 ---------------------------------------------------------------
  

 Cite this work as:
 Gaussian 16, Revision C.02,
 M. J. Frisch, G. W. Trucks, H. B. Schlegel, G. E. Scuseria, 
 M. A. Robb, J. R. Cheeseman, G. Scalmani, V. Barone, 
 G. A. Petersson, H. Nakatsuji, X. Li, M. Caricato, A. V. Marenich, 
 J. Bloino, B. G. Janesko, R. Gomperts, B. Mennucci, H. P. Hratchian, 
 J. V. Ortiz, A. F. Izmaylov, J. L. Sonnenberg, D. Williams-Young, 
 F. Ding, F. Lipparini, F. Egidi, J. Goings, B. Peng, A. Petrone, 
 T. Henderson, D. Ranasinghe, V. G. Zakrzewski, J. Gao, N. Rega, 
 G. Zheng, W. Liang, M. Hada, M. Ehara, K. Toyota, R. Fukuda, 
 J. Hasegawa, M. Ishida, T. Nakajima, Y. Honda, O. Kitao, H. Nakai, 
 T. Vreven, K. Throssell, J. A. Montgomery, Jr., J. E. Peralta, 
 F. Ogliaro, M. J. Bearpark, J. J. Heyd, E. N. Brothers, K. N. Kudin, 
 V. N. Staroverov, T. A. Keith, R. Kobayashi, J. Normand, 
 K. Raghavachari, A. P. Rendell, J. C. Burant, S. S. Iyengar, 
 J. Tomasi, M. Cossi, J. M. Millam, M. Klene, C. Adamo, R. Cammi, 
 J. W. Ochterski, R. L. Martin, K. Morokuma, O. Farkas, 
 J. B. Foresman, and D. J. Fox, Gaussian, Inc., Wallingford CT, 2019.
 
 ******************************************
 Gaussian 16:  AS64L-G16RevC.02  7-Dec-2021
                10-Apr-2024 
 ******************************************
 %nprocshared=128
 Will use up to  128 processors via shared memory.
 %mem=30GB
 %chk=h_indole_chelpg.chk
 ----------------------------------------------------------------------
 # wb97xd/genecp scrf=(solvent=toluene,pcm) nosymm pop=(chelpg) scfcyc=
 300
 ----------------------------------------------------------------------
 1/38=1,172=1/1;
 2/12=2,15=1,17=6,18=5,40=1/2;
 3/5=7,11=2,16=1,17=8,25=1,30=1,70=2201,72=13,74=-58/1,2,3;
 4//1;
 5/5=2,7=300,38=5,53=13/2;
 6/7=2,8=2,9=2,10=2,15=8,20=3,28=1/1,2;
 99/5=1,9=1/99;
 ---------------
 h_indole_chelpg
 ---------------
 Symbolic Z-matrix:
 Charge =  0 Multiplicity = 1
 C                    -1.11618  -1.2396   -0.19518 
 C                    -2.50215  -1.27207  -0.09967 
 C                    -1.83789   0.89212  -0.14523 
 C                    -1.94025   2.29397  -0.13769 
 C                    -3.19589   2.8584   -0.05036 
 C                    -4.34565   2.02639   0.02907 
 C                    -4.25265   0.65625   0.02193 
 C                    -2.97959   0.06014  -0.06653 
 H                    -1.05646   2.91995  -0.19864 
 H                    -5.3207    2.49833   0.09709 
 H                    -5.14357   0.04075   0.08335 
 N                    -0.73048   0.10611  -0.22172 
 H                    -3.08886  -2.17814  -0.0595 
 B                    -0.21146  -2.45396  -0.25753 
 C                     0.61746   0.62399  -0.31326 
 H                     0.85515   1.23186   0.56387 
 H                     1.31778  -0.20596  -0.36352 
 H                     0.73266   1.23602  -1.21182 
 C                    -3.37463   4.35352  -0.03798 
 H                    -3.8809    4.67715   0.8761 
 H                    -2.41588   4.87185  -0.09685 
 H                    -3.98939   4.67848  -0.88249 
 H                     0.97903  -2.37805  -0.33961 
 H                    -0.72607  -3.53173  -0.222 
 
                          Input orientation:                          
 ---------------------------------------------------------------------
 Center     Atomic      Atomic             Coordinates (Angstroms)
 Number     Number       Type             X           Y           Z
 ---------------------------------------------------------------------
      1          6           0       -1.116181   -1.239600   -0.195184
      2          6           0       -2.502147   -1.272070   -0.099667
      3          6           0       -1.837894    0.892120   -0.145232
      4          6           0       -1.940248    2.293965   -0.137686
      5          6           0       -3.195891    2.858399   -0.050360
      6          6           0       -4.345648    2.026387    0.029069
      7          6           0       -4.252652    0.656247    0.021926
      8          6           0       -2.979594    0.060141   -0.066534
      9          1           0       -1.056456    2.919948   -0.198644
     10          1           0       -5.320695    2.498329    0.097093
     11          1           0       -5.143573    0.040749    0.083346
     12          7           0       -0.730484    0.106107   -0.221718
     13          1           0       -3.088860   -2.178143   -0.059501
     14          5           0       -0.211464   -2.453956   -0.257530
     15          6           0        0.617461    0.623993   -0.313260
     16          1           0        0.855154    1.231864    0.563868
     17          1           0        1.317776   -0.205958   -0.363521
     18          1           0        0.732662    1.236018   -1.211819
     19          6           0       -3.374633    4.353522   -0.037982
     20          1           0       -3.880900    4.677152    0.876104
     21          1           0       -2.415883    4.871849   -0.096847
     22          1           0       -3.989394    4.678483   -0.882486
     23          1           0        0.979026   -2.378052   -0.339609
     24          1           0       -0.726068   -3.531730   -0.221999
 ---------------------------------------------------------------------
                    Distance matrix (angstroms):
                    1          2          3          4          5
     1  C    0.000000
     2  C    1.389633   0.000000
     3  C    2.251132   2.264294   0.000000
     4  C    3.628839   3.610233   1.405597   0.000000
     5  C    4.597800   4.188614   2.391529   1.379439   0.000000
     6  C    4.598523   3.780858   2.757857   2.425975   1.421441
     7  C    3.671352   2.607194   2.432002   2.838099   2.443654
     8  C    2.275563   1.415570   1.414871   2.464807   2.806652
     9  H    4.159978   4.435407   2.173841   1.084739   2.145451
    10  H    5.633425   4.711564   3.842985   3.394747   2.160135
    11  H    4.235181   2.955354   3.421198   3.922643   3.427899
    12  N    1.400141   2.247901   1.360156   2.501462   3.699014
    13  H    2.188775   1.080192   3.316441   4.617919   5.037687
    14  B    1.515606   2.582441   3.722111   5.054286   6.096789
    15  C    2.548026   3.656861   2.475660   3.059658   4.427566
    16  H    3.251224   4.240452   2.805487   3.071565   4.408385
    17  H    2.649698   3.974673   3.348384   4.112826   5.464572
    18  H    3.252761   4.241624   2.804217   3.068788   4.406204
    19  C    6.033932   5.693182   3.788717   2.511807   1.505820
    20  H    6.618103   6.184362   4.420799   3.236276   2.153006
    21  H    6.248896   6.144525   4.021773   2.621714   2.159758
    22  H    6.614487   6.183348   4.416904   3.231045   2.152855
    23  H    2.388896   3.660510   4.320515   5.512774   6.703284
    24  H    2.325246   2.876714   4.562072   5.951476   6.852973
                    6          7          8          9         10
     6  C    0.000000
     7  C    1.373311   0.000000
     8  C    2.396115   1.408490   0.000000
     9  H    3.416005   3.922839   3.448827   0.000000
    10  H    1.085391   2.130641   3.384123   4.295225   0.000000
    11  H    2.140651   1.084597   2.169250   5.007378   2.463993
    12  N    4.101193   3.573190   2.254926   2.832753   5.185981
    13  H    4.389241   3.065095   2.240960   5.490042   5.184110
    14  B    6.103039   5.107118   3.744290   5.440250   7.124263
    15  C    5.168786   4.881741   3.649330   2.843685   6.240450
    16  H    5.288253   5.168628   4.059019   2.661824   6.321623
    17  H    6.100153   5.649923   4.315831   3.928798   7.182940
    18  H    5.287128   5.168328   4.058967   2.657647   6.320586
    19  C    2.522484   3.800572   4.311611   2.730365   2.692052
    20  H    2.821350   4.127408   4.797678   3.495759   2.725277
    21  H    3.440422   4.599905   4.844711   2.380824   3.756214
    22  H    2.826918   4.131059   4.797349   3.487436   2.735874
    23  H    6.920055   6.058724   4.657255   5.677311   7.978489
    24  H    6.637549   5.480460   4.243122   6.460174   7.587755
                   11         12         13         14         15
    11  H    0.000000
    12  N    4.424103   0.000000
    13  H    3.027496   3.287256   0.000000
    14  B    5.537639   2.612391   2.897360   0.000000
    15  C    5.804049   1.446908   4.653297   3.188102   0.000000
    16  H    6.134687   2.097313   5.250903   3.923982   1.093325
    17  H    6.481480   2.076743   4.837394   2.720901   1.087100
    18  H    6.134840   2.097092   5.252463   3.926570   1.093277
    19  C    4.663033   5.006577   6.537949   7.509700   5.470099
    20  H    4.870220   5.659045   6.964033   8.099542   6.170732
    21  H    5.550882   5.056526   7.082138   7.651974   5.224202
    22  H    4.875811   5.653648   6.964308   8.095370   6.163280
    23  H    6.596644   3.017842   4.082416   1.195728   3.023855
    24  H    5.689481   3.637840   2.727891   1.194854   4.368459
                   16         17         18         19         20
    16  H    0.000000
    17  H    1.772400   0.000000
    18  H    1.779912   1.772361   0.000000
    19  C    5.291320   6.550842   5.288345   0.000000
    20  H    5.864956   7.239314   6.122563   1.093890   0.000000
    21  H    4.938190   6.308363   4.937182   1.091480   1.769411
    22  H    6.118886   7.231400   5.852934   1.093946   1.761934
    23  H    3.723320   2.198480   3.725983   8.022432   8.652904
    24  H    5.080323   3.906160   5.083213   8.320214   8.862536
                   21         22         23         24
    21  H    0.000000
    22  H    1.769338   0.000000
    23  H    8.009083   8.647231   0.000000
    24  H    8.572705   8.859635   2.062074   0.000000
 Symmetry turned off by external request.
 Stoichiometry    C10H12BN
 Framework group  C1[X(C10H12BN)]
 Deg. of freedom    66
 Full point group                 C1      NOp   1
 Rotational constants (GHZ):           2.0895959           0.6857494           0.5196664
 General basis read from cards:  (5D, 7F)
 ======================================================================================================
                                       Pseudopotential Parameters
 ======================================================================================================
  Center     Atomic      Valence      Angular      Power
  Number     Number     Electrons     Momentum     of R      Exponent        Coefficient   SO-Coeffient
 ======================================================================================================
    1          6
                                   No pseudopotential on this center.
    2          6
                                   No pseudopotential on this center.
    3          6
                                   No pseudopotential on this center.
    4          6
                                   No pseudopotential on this center.
    5          6
                                   No pseudopotential on this center.
    6          6
                                   No pseudopotential on this center.
    7          6
                                   No pseudopotential on this center.
    8          6
                                   No pseudopotential on this center.
    9          1
                                   No pseudopotential on this center.
   10          1
                                   No pseudopotential on this center.
   11          1
                                   No pseudopotential on this center.
   12          7
                                   No pseudopotential on this center.
   13          1
                                   No pseudopotential on this center.
   14          5
                                   No pseudopotential on this center.
   15          6
                                   No pseudopotential on this center.
   16          1
                                   No pseudopotential on this center.
   17          1
                                   No pseudopotential on this center.
   18          1
                                   No pseudopotential on this center.
   19          6
                                   No pseudopotential on this center.
   20          1
                                   No pseudopotential on this center.
   21          1
                                   No pseudopotential on this center.
   22          1
                                   No pseudopotential on this center.
   23          1
                                   No pseudopotential on this center.
   24          1
                                   No pseudopotential on this center.
 ======================================================================================================
   348 basis functions,   540 primitive gaussians,   360 cartesian basis functions
    42 alpha electrons       42 beta electrons
       nuclear repulsion energy       640.5794127130 Hartrees.
 NAtoms=   24 NActive=   24 NUniq=   24 SFac= 1.00D+00 NAtFMM=   60 NAOKFM=F Big=F
 Integral buffers will be    131072 words long.
 Raffenetti 2 integral format.
 Two-electron integral symmetry is turned off.
 Nuclear repulsion after empirical dispersion term =      640.5645163128 Hartrees.
 ------------------------------------------------------------------------------
 Polarizable Continuum Model (PCM)
 =================================
 Model                : PCM.
 Atomic radii         : UFF (Universal Force Field).
 Polarization charges : Total charges.
 Charge compensation  : None.
 Solution method      : On-the-fly selection.
 Cavity type          : Scaled VdW (van der Waals Surface) (Alpha=1.100).
 Cavity algorithm     : GePol (No added spheres)
                        Default sphere list used, NSphG=   24.
                        Lebedev-Laikov grids with approx.  5.0 points / Ang**2.
                        Smoothing algorithm: York/Karplus (Gamma=1.0000).
                        Polarization charges: spherical gaussians, with
                                              point-specific exponents (IZeta= 3).
                        Self-potential: point-specific (ISelfS= 7).
                        Self-field    : sphere-specific E.n sum rule (ISelfD= 2).
 Solvent              : Toluene, Eps=   2.374100 Eps(inf)=   2.238315
 ------------------------------------------------------------------------------
 One-electron integrals computed using PRISM.
   1 Symmetry operations used in ECPInt.
 ECPInt:  NShTT=    8778 NPrTT=   29172 LenC2=    8412 LenP2D=   20797.
 LDataN:  DoStor=T MaxTD1= 4 Len=   56
 Number of processors reduced to 124 by ecpmxn.
 NBasis=   348 RedAO= T EigKep=  1.78D-06  NBF=   348
 NBsUse=   345 1.00D-06 EigRej=  9.13D-07 NBFU=   345
 ExpMin= 3.15D-02 ExpMax= 6.29D+03 ExpMxC= 9.49D+02 IAcc=3 IRadAn=         5 AccDes= 0.00D+00
 Harris functional with IExCor= 4639 and IRadAn=       5 diagonalized for initial guess.
 HarFok:  IExCor= 4639 AccDes= 0.00D+00 IRadAn=         5 IDoV= 1 UseB2=F ITyADJ=14
 ICtDFT=  3500011 ScaDFX=  1.000000  1.000000  1.000000  1.000000
 FoFCou: FMM=F IPFlag=           0 FMFlag=      100000 FMFlg1=           0
         NFxFlg=           0 DoJE=T BraDBF=F KetDBF=T FulRan=T
         wScrn=  0.000000 ICntrl=       500 IOpCl=  0 I1Cent=   200000004 NGrid=           0
         NMat0=    1 NMatS0=      1 NMatT0=    0 NMatD0=    1 NMtDS0=    0 NMtDT0=    0
 Symmetry not used in FoFCou.
 Requested convergence on RMS density matrix=1.00D-08 within 300 cycles.
 Requested convergence on MAX density matrix=1.00D-06.
 Requested convergence on             energy=1.00D-06.
 No special actions if energy rises.
 Inv3:  Mode=1 IEnd=    11024667.
 Iteration    1 A*A^-1 deviation from unit magnitude is 2.89D-15 for   1905.
 Iteration    1 A*A^-1 deviation from orthogonality  is 2.20D-15 for   1614    846.
 Iteration    1 A^-1*A deviation from unit magnitude is 3.55D-15 for   1905.
 Iteration    1 A^-1*A deviation from orthogonality  is 1.54D-15 for   1188    616.
 Error on total polarization charges =  0.01030
 SCF Done:  E(RwB97XD) =  -467.849669389     A.U. after   16 cycles
            NFock= 16  Conv=0.29D-08     -V/T= 2.0045

 **********************************************************************

            Population analysis using the SCF Density.

 **********************************************************************

 Alpha  occ. eigenvalues --  -14.48250 -10.32424 -10.32153 -10.30430 -10.29836
 Alpha  occ. eigenvalues --  -10.29440 -10.28978 -10.28904 -10.28707 -10.28352
 Alpha  occ. eigenvalues --  -10.28089  -6.84340  -1.09585  -0.96021  -0.91265
 Alpha  occ. eigenvalues --   -0.85709  -0.85217  -0.79227  -0.77956  -0.71198
 Alpha  occ. eigenvalues --   -0.68345  -0.66261  -0.62028  -0.58392  -0.57390
 Alpha  occ. eigenvalues --   -0.56009  -0.54451  -0.53346  -0.51484  -0.51118
 Alpha  occ. eigenvalues --   -0.49632  -0.48190  -0.48086  -0.46689  -0.44694
 Alpha  occ. eigenvalues --   -0.43231  -0.42349  -0.41420  -0.41044  -0.36612
 Alpha  occ. eigenvalues --   -0.30287  -0.28778
 Alpha virt. eigenvalues --   -0.01145   0.03955   0.04884   0.05105   0.06233
 Alpha virt. eigenvalues --    0.06575   0.06673   0.06718   0.07757   0.08060
 Alpha virt. eigenvalues --    0.08689   0.08895   0.09007   0.09591   0.10531
 Alpha virt. eigenvalues --    0.11132   0.12392   0.13156   0.13412   0.13915
 Alpha virt. eigenvalues --    0.14423   0.15003   0.15390   0.15954   0.16248
 Alpha virt. eigenvalues --    0.16914   0.17022   0.17389   0.17661   0.17771
 Alpha virt. eigenvalues --    0.18063   0.18494   0.18999   0.19051   0.19448
 Alpha virt. eigenvalues --    0.20000   0.20823   0.21710   0.21773   0.22029
 Alpha virt. eigenvalues --    0.22226   0.22387   0.22862   0.23572   0.24203
 Alpha virt. eigenvalues --    0.24366   0.24880   0.25341   0.25486   0.25749
 Alpha virt. eigenvalues --    0.26109   0.27623   0.27807   0.28791   0.28943
 Alpha virt. eigenvalues --    0.29546   0.30180   0.30518   0.31200   0.31663
 Alpha virt. eigenvalues --    0.32275   0.32384   0.33187   0.34507   0.35070
 Alpha virt. eigenvalues --    0.35119   0.35691   0.35968   0.36897   0.37102
 Alpha virt. eigenvalues --    0.37480   0.38182   0.39199   0.39559   0.40934
 Alpha virt. eigenvalues --    0.41447   0.41802   0.43300   0.43732   0.45891
 Alpha virt. eigenvalues --    0.47688   0.49630   0.50605   0.50941   0.51762
 Alpha virt. eigenvalues --    0.52829   0.53150   0.54185   0.56686   0.58323
 Alpha virt. eigenvalues --    0.59190   0.61536   0.61796   0.62272   0.62651
 Alpha virt. eigenvalues --    0.64505   0.65415   0.65700   0.67054   0.67380
 Alpha virt. eigenvalues --    0.67440   0.68257   0.70215   0.70414   0.71806
 Alpha virt. eigenvalues --    0.72361   0.72956   0.73970   0.74005   0.74164
 Alpha virt. eigenvalues --    0.75674   0.75759   0.76285   0.78009   0.79581
 Alpha virt. eigenvalues --    0.79857   0.80336   0.80708   0.83327   0.84365
 Alpha virt. eigenvalues --    0.85615   0.88267   0.88377   0.89215   0.90340
 Alpha virt. eigenvalues --    0.91955   0.93048   0.94368   0.94705   0.96178
 Alpha virt. eigenvalues --    0.97880   0.98837   0.98899   1.00887   1.01297
 Alpha virt. eigenvalues --    1.03708   1.04072   1.04888   1.05775   1.07249
 Alpha virt. eigenvalues --    1.09497   1.09642   1.11354   1.11833   1.12758
 Alpha virt. eigenvalues --    1.15862   1.16704   1.18860   1.20254   1.20534
 Alpha virt. eigenvalues --    1.22339   1.24116   1.26637   1.28214   1.29943
 Alpha virt. eigenvalues --    1.39520   1.39837   1.42877   1.44515   1.46192
 Alpha virt. eigenvalues --    1.47769   1.52511   1.53282   1.54243   1.54688
 Alpha virt. eigenvalues --    1.55114   1.58845   1.60360   1.62711   1.63214
 Alpha virt. eigenvalues --    1.63921   1.64616   1.65659   1.66294   1.67412
 Alpha virt. eigenvalues --    1.69027   1.69448   1.71240   1.72663   1.72903
 Alpha virt. eigenvalues --    1.75521   1.78113   1.78349   1.79705   1.80261
 Alpha virt. eigenvalues --    1.81745   1.83782   1.84982   1.86085   1.87968
 Alpha virt. eigenvalues --    1.89078   1.92965   1.94807   1.94880   1.96462
 Alpha virt. eigenvalues --    1.96804   1.99769   2.00262   2.03315   2.04152
 Alpha virt. eigenvalues --    2.04923   2.05543   2.08533   2.11023   2.11732
 Alpha virt. eigenvalues --    2.12026   2.13989   2.15957   2.16052   2.19107
 Alpha virt. eigenvalues --    2.21503   2.22881   2.25950   2.26316   2.28240
 Alpha virt. eigenvalues --    2.28601   2.31658   2.34359   2.38107   2.40774
 Alpha virt. eigenvalues --    2.40919   2.44900   2.46336   2.52330   2.52358
 Alpha virt. eigenvalues --    2.56953   2.57795   2.59787   2.60962   2.61130
 Alpha virt. eigenvalues --    2.63795   2.64419   2.67047   2.67803   2.68227
 Alpha virt. eigenvalues --    2.71132   2.73111   2.73695   2.75581   2.76634
 Alpha virt. eigenvalues --    2.79278   2.81100   2.81412   2.82165   2.84419
 Alpha virt. eigenvalues --    2.85245   2.87326   2.87733   2.89692   2.91350
 Alpha virt. eigenvalues --    2.95814   2.96787   2.98164   2.99082   3.00231
 Alpha virt. eigenvalues --    3.02992   3.06432   3.06898   3.07689   3.11791
 Alpha virt. eigenvalues --    3.13148   3.17349   3.20521   3.21400   3.23148
 Alpha virt. eigenvalues --    3.29731   3.35409   3.43419   3.47717   3.53687
 Alpha virt. eigenvalues --    3.57901   3.60993   3.68297   3.74697   3.79414
 Alpha virt. eigenvalues --    3.82822   3.84789   3.89435   3.89603   3.93355
 Alpha virt. eigenvalues --    3.94759   4.08054   4.08627   4.18505   4.22258
 Alpha virt. eigenvalues --    4.31581   4.40601   4.55406   4.94935   5.10380
 Alpha virt. eigenvalues --    5.30172  14.80765  23.74991  23.97443  24.04907
 Alpha virt. eigenvalues --   24.09374  24.09788  24.13842  24.18419  24.26176
 Alpha virt. eigenvalues --   24.26532  24.33042  35.76250
          Condensed to atoms (all electrons):
               1          2          3          4          5          6
     1  C    6.994473  -0.462194   0.597949   0.183030  -0.328687  -0.136801
     2  C   -0.462194   8.831480  -2.309682  -1.330570   0.667532  -0.014682
     3  C    0.597949  -2.309682   9.504595   1.481751  -2.300603  -0.400378
     4  C    0.183030  -1.330570   1.481751   7.254375  -0.495999  -0.189087
     5  C   -0.328687   0.667532  -2.300603  -0.495999   8.539419  -0.196757
     6  C   -0.136801  -0.014682  -0.400378  -0.189087  -0.196757   8.060509
     7  C   -0.406138   0.418829  -0.646142   0.072693  -0.690791   1.584189
     8  C   -0.530588  -0.045519   0.485678  -0.696459   1.324686  -1.783857
     9  H    0.004672  -0.040749   0.004888   0.482852  -0.095507   0.031051
    10  H   -0.003934   0.002922   0.009421   0.000180  -0.037875   0.411953
    11  H    0.015095  -0.013165   0.018308   0.004664   0.013703  -0.066209
    12  N    0.040503  -0.020487   0.029086  -0.203223  -0.068044   0.015401
    13  H   -0.071393   0.295415   0.072471   0.009131  -0.005840  -0.015694
    14  B    0.152553   0.093612  -0.055299   0.009722  -0.004558   0.014085
    15  C    0.142908  -0.235526  -0.028248   0.171894  -0.208068   0.040590
    16  H   -0.015445   0.009435  -0.036393  -0.000557   0.006915   0.000966
    17  H    0.028985  -0.015294   0.028495   0.009804  -0.002851   0.000798
    18  H   -0.014985   0.008774  -0.037792   0.001302   0.007445   0.001081
    19  C   -0.021063  -0.002877   0.108282   0.025830  -0.661538  -0.768197
    20  H    0.000652  -0.000163  -0.020540  -0.035390   0.024308   0.003401
    21  H   -0.002432   0.004354   0.033545   0.093933  -0.122366  -0.026036
    22  H    0.000674  -0.000130  -0.019696  -0.034688   0.030399  -0.000442
    23  H    0.006990  -0.055099  -0.013150  -0.002789   0.001411  -0.001219
    24  H   -0.213264   0.118962  -0.040125  -0.004664  -0.003571   0.002256
               7          8          9         10         11         12
     1  C   -0.406138  -0.530588   0.004672  -0.003934   0.015095   0.040503
     2  C    0.418829  -0.045519  -0.040749   0.002922  -0.013165  -0.020487
     3  C   -0.646142   0.485678   0.004888   0.009421   0.018308   0.029086
     4  C    0.072693  -0.696459   0.482852   0.000180   0.004664  -0.203223
     5  C   -0.690791   1.324686  -0.095507  -0.037875   0.013703  -0.068044
     6  C    1.584189  -1.783857   0.031051   0.411953  -0.066209   0.015401
     7  C    6.399148  -0.676729   0.016057  -0.033923   0.387183   0.070259
     8  C   -0.676729   7.762815  -0.050991   0.007489  -0.038074  -0.128817
     9  H    0.016057  -0.050991   0.502889  -0.000253   0.000618  -0.021035
    10  H   -0.033923   0.007489  -0.000253   0.462368  -0.013746   0.000521
    11  H    0.387183  -0.038074   0.000618  -0.013746   0.469766  -0.000084
    12  N    0.070259  -0.128817  -0.021035   0.000521  -0.000084   7.023758
    13  H   -0.031738   0.038445   0.001573   0.000687   0.000088   0.016172
    14  B    0.038187  -0.006126  -0.000524   0.000136   0.001099  -0.075219
    15  C   -0.021836  -0.263952   0.014964   0.000263  -0.000035   0.236939
    16  H    0.001594   0.019046  -0.007619   0.000011  -0.000117  -0.035700
    17  H   -0.002841  -0.021538   0.004057  -0.000069  -0.000055  -0.081015
    18  H    0.001601   0.018660  -0.007709   0.000013  -0.000113  -0.035809
    19  C   -0.132331   0.189513  -0.017948  -0.008589   0.002095  -0.006722
    20  H   -0.003037   0.006696   0.000249  -0.001731   0.000322   0.000478
    21  H   -0.005414   0.011728  -0.004189   0.002543  -0.000180  -0.000408
    22  H   -0.004661   0.006932   0.000207  -0.001570   0.000290   0.000474
    23  H   -0.002235  -0.028739  -0.000705  -0.000076   0.000049  -0.019332
    24  H    0.011143   0.010447   0.000076   0.000080   0.000222   0.016001
              13         14         15         16         17         18
     1  C   -0.071393   0.152553   0.142908  -0.015445   0.028985  -0.014985
     2  C    0.295415   0.093612  -0.235526   0.009435  -0.015294   0.008774
     3  C    0.072471  -0.055299  -0.028248  -0.036393   0.028495  -0.037792
     4  C    0.009131   0.009722   0.171894  -0.000557   0.009804   0.001302
     5  C   -0.005840  -0.004558  -0.208068   0.006915  -0.002851   0.007445
     6  C   -0.015694   0.014085   0.040590   0.000966   0.000798   0.001081
     7  C   -0.031738   0.038187  -0.021836   0.001594  -0.002841   0.001601
     8  C    0.038445  -0.006126  -0.263952   0.019046  -0.021538   0.018660
     9  H    0.001573  -0.000524   0.014964  -0.007619   0.004057  -0.007709
    10  H    0.000687   0.000136   0.000263   0.000011  -0.000069   0.000013
    11  H    0.000088   0.001099  -0.000035  -0.000117  -0.000055  -0.000113
    12  N    0.016172  -0.075219   0.236939  -0.035700  -0.081015  -0.035809
    13  H    0.472972  -0.032641   0.001186  -0.000417   0.000204  -0.000438
    14  B   -0.032641   4.015159  -0.012686  -0.001859   0.013387  -0.001876
    15  C    0.001186  -0.012686   5.379601   0.406532   0.435762   0.406157
    16  H   -0.000417  -0.001859   0.406532   0.544603  -0.026329  -0.062691
    17  H    0.000204   0.013387   0.435762  -0.026329   0.533031  -0.026431
    18  H   -0.000438  -0.001876   0.406157  -0.062691  -0.026431   0.545322
    19  C    0.000670  -0.000878  -0.021907   0.001809  -0.001159   0.001843
    20  H    0.000000  -0.000041   0.000030  -0.000072   0.000004   0.000010
    21  H   -0.000169   0.000080   0.000123   0.000176   0.000040   0.000209
    22  H    0.000003  -0.000042   0.000019   0.000011   0.000003  -0.000073
    23  H   -0.003805   0.478461   0.022427  -0.001231   0.021013  -0.001158
    24  H   -0.012113   0.501454  -0.016120   0.000369  -0.007821   0.000339
              19         20         21         22         23         24
     1  C   -0.021063   0.000652  -0.002432   0.000674   0.006990  -0.213264
     2  C   -0.002877  -0.000163   0.004354  -0.000130  -0.055099   0.118962
     3  C    0.108282  -0.020540   0.033545  -0.019696  -0.013150  -0.040125
     4  C    0.025830  -0.035390   0.093933  -0.034688  -0.002789  -0.004664
     5  C   -0.661538   0.024308  -0.122366   0.030399   0.001411  -0.003571
     6  C   -0.768197   0.003401  -0.026036  -0.000442  -0.001219   0.002256
     7  C   -0.132331  -0.003037  -0.005414  -0.004661  -0.002235   0.011143
     8  C    0.189513   0.006696   0.011728   0.006932  -0.028739   0.010447
     9  H   -0.017948   0.000249  -0.004189   0.000207  -0.000705   0.000076
    10  H   -0.008589  -0.001731   0.002543  -0.001570  -0.000076   0.000080
    11  H    0.002095   0.000322  -0.000180   0.000290   0.000049   0.000222
    12  N   -0.006722   0.000478  -0.000408   0.000474  -0.019332   0.016001
    13  H    0.000670   0.000000  -0.000169   0.000003  -0.003805  -0.012113
    14  B   -0.000878  -0.000041   0.000080  -0.000042   0.478461   0.501454
    15  C   -0.021907   0.000030   0.000123   0.000019   0.022427  -0.016120
    16  H    0.001809  -0.000072   0.000176   0.000011  -0.001231   0.000369
    17  H   -0.001159   0.000004   0.000040   0.000003   0.021013  -0.007821
    18  H    0.001843   0.000010   0.000209  -0.000073  -0.001158   0.000339
    19  C    6.703854   0.377975   0.361222   0.375451   0.000361  -0.000222
    20  H    0.377975   0.540241  -0.018119  -0.059563   0.000004  -0.000001
    21  H    0.361222  -0.018119   0.514008  -0.017699   0.000032  -0.000015
    22  H    0.375451  -0.059563  -0.017699   0.538533   0.000004  -0.000001
    23  H    0.000361   0.000004   0.000032   0.000004   0.636004  -0.005226
    24  H   -0.000222  -0.000001  -0.000015  -0.000001  -0.005226   0.636778
 Mulliken charges:
               1
     1  C    0.038439
     2  C    0.094819
     3  C   -0.466421
     4  C   -0.807731
     5  C    0.607236
     6  C   -0.566924
     7  C   -0.343066
     8  C    0.389254
     9  H    0.183075
    10  H    0.203178
    11  H    0.218275
    12  N    0.246305
    13  H    0.265230
    14  B   -0.126185
    15  C   -0.451016
    16  H    0.196962
    17  H    0.109819
    18  H    0.196320
    19  C   -0.505475
    20  H    0.184286
    21  H    0.175031
    22  H    0.185564
    23  H   -0.031992
    24  H    0.005016
 Sum of Mulliken charges =  -0.00000
 Mulliken charges with hydrogens summed into heavy atoms:
               1
     1  C    0.038439
     2  C    0.360049
     3  C   -0.466421
     4  C   -0.624656
     5  C    0.607236
     6  C   -0.363746
     7  C   -0.124791
     8  C    0.389254
    12  N    0.246305
    14  B   -0.153160
    15  C    0.052086
    19  C    0.039406
 Electronic spatial extent (au):  <R**2>=           3717.8115
 Charge=             -0.0000 electrons
 Dipole moment (field-independent basis, Debye):
    X=              0.5795    Y=              2.4213    Z=             -0.0402  Tot=              2.4900
 Quadrupole moment (field-independent basis, Debye-Ang):
   XX=            -66.4443   YY=            -68.6549   ZZ=            -76.0678
   XY=             -1.1019   XZ=             -0.8240   YZ=             -0.5813
 Traceless Quadrupole moment (field-independent basis, Debye-Ang):
   XX=              3.9447   YY=              1.7341   ZZ=             -5.6788
   XY=             -1.1019   XZ=             -0.8240   YZ=             -0.5813
 Octapole moment (field-independent basis, Debye-Ang**2):
  XXX=            407.1250  YYY=           -119.3343  ZZZ=             27.9403  XYY=            127.7468
  XXY=            -43.4512  XXZ=             12.6677  XZZ=            164.5051  YZZ=            -56.4860
  YYZ=              9.8174  XYZ=             -0.6171
 Hexadecapole moment (field-independent basis, Debye-Ang**3):
 XXXX=          -2852.7100 YYYY=          -2009.0218 ZZZZ=           -114.0869 XXXY=            630.2191
 XXXZ=            -35.1504 YYYX=            608.6973 YYYZ=             -9.8111 ZZZX=            -19.6486
 ZZZY=             -3.1708 XXYY=           -769.7893 XXZZ=           -587.8253 YYZZ=           -370.8612
 XXYZ=              1.0255 YYXZ=             -6.9750 ZZXY=            236.8236
 N-N= 6.405645163128D+02 E-N=-2.366197973920D+03  KE= 4.657693969246D+02
 Breneman (CHELPG) radii used.
 Generate Potential Derived Charges using the Breneman model, NDens= 1.
 Grid spacing= 0.300 Box extension= 2.800
 NStep X,Y,Z=   42     48     27   Total possible points=       54432
 Number of Points to Fit=   15472

 **********************************************************************

            Electrostatic Properties Using The SCF Density.

 **********************************************************************

       Atomic Center    1 is at  -1.116181 -1.239600 -0.195184
       Atomic Center    2 is at  -2.502147 -1.272070 -0.099667
       Atomic Center    3 is at  -1.837894  0.892120 -0.145232
       Atomic Center    4 is at  -1.940248  2.293965 -0.137686
       Atomic Center    5 is at  -3.195891  2.858399 -0.050360
       Atomic Center    6 is at  -4.345648  2.026387  0.029069
       Atomic Center    7 is at  -4.252652  0.656247  0.021926
       Atomic Center    8 is at  -2.979594  0.060141 -0.066534
       Atomic Center    9 is at  -1.056456  2.919948 -0.198644
       Atomic Center   10 is at  -5.320695  2.498329  0.097093
       Atomic Center   11 is at  -5.143573  0.040749  0.083346
       Atomic Center   12 is at  -0.730484  0.106107 -0.221718
       Atomic Center   13 is at  -3.088860 -2.178143 -0.059501
       Atomic Center   14 is at  -0.211464 -2.453956 -0.257530
       Atomic Center   15 is at   0.617461  0.623993 -0.313260
       Atomic Center   16 is at   0.855154  1.231864  0.563868
       Atomic Center   17 is at   1.317776 -0.205958 -0.363521
       Atomic Center   18 is at   0.732662  1.236018 -1.211819
       Atomic Center   19 is at  -3.374633  4.353522 -0.037982
       Atomic Center   20 is at  -3.880900  4.677152  0.876104
       Atomic Center   21 is at  -2.415883  4.871849 -0.096847
       Atomic Center   22 is at  -3.989394  4.678483 -0.882486
       Atomic Center   23 is at   0.979026 -2.378052 -0.339609
       Atomic Center   24 is at  -0.726068 -3.531730 -0.221999
   15472 points will be used for fitting atomic charges
 Fitting point charges to electrostatic potential
 Charges from ESP fit, RMS=   0.00412 RRMS=   0.35948:
 ESP charges:
               1
     1  C   -0.134215
     2  C   -0.344261
     3  C    0.179251
     4  C   -0.363581
     5  C    0.210382
     6  C   -0.228422
     7  C   -0.220818
     8  C    0.164245
     9  H    0.175682
    10  H    0.132027
    11  H    0.145160
    12  N   -0.067215
    13  H    0.183147
    14  B    0.434679
    15  C   -0.108123
    16  H    0.065613
    17  H    0.106464
    18  H    0.066365
    19  C   -0.238705
    20  H    0.072667
    21  H    0.071037
    22  H    0.072414
    23  H   -0.182398
    24  H   -0.191395
 Sum of ESP charges =  -0.00000
 ESP charges with hydrogens summed into heavy atoms:
               1
     1  C   -0.134215
     2  C   -0.161115
     3  C    0.179251
     4  C   -0.187900
     5  C    0.210382
     6  C   -0.096396
     7  C   -0.075658
     8  C    0.164245
    12  N   -0.067215
    14  B    0.060886
    15  C    0.130320
    19  C   -0.022587
 Charge=  -0.00000 Dipole=     0.5552     2.2975    -0.0397 Tot=     2.3640
 -----------------------------------------------------------------

              Electrostatic Properties (Atomic Units)

 -----------------------------------------------------------------
    Center     Electric         -------- Electric Field --------
               Potential          X             Y             Z
 -----------------------------------------------------------------
    1 Atom    -14.767882
    2 Atom    -14.778834
    3 Atom    -14.741175
    4 Atom    -14.772235
    5 Atom    -14.758621
    6 Atom    -14.780791
    7 Atom    -14.771733
    8 Atom    -14.780166
    9 Atom     -1.092765
   10 Atom     -1.108735
   11 Atom     -1.103464
   12 Atom    -18.342942
   13 Atom     -1.100310
   14 Atom    -11.473831
   15 Atom    -14.729390
   16 Atom     -1.095517
   17 Atom     -1.091847
   18 Atom     -1.095454
   19 Atom    -14.772911
   20 Atom     -1.109980
   21 Atom     -1.111047
   22 Atom     -1.109944
   23 Atom     -1.160096
   24 Atom     -1.167784
 -----------------------------------------------------------------
 Unable to Open any file for archive entry.
 1\1\GINC-IRENE5425\SP\RwB97XD\GenECP\C10H12B1N1\PENASFRA\10-Apr-2024\0
 \\# wb97xd/genecp scrf=(solvent=toluene,pcm) nosymm pop=(chelpg) scfcy
 c=300\\h_indole_chelpg\\0,1\C,0,-1.116181,-1.2396,-0.195184\C,0,-2.502
 147,-1.27207,-0.099667\C,0,-1.837894,0.89212,-0.145232\C,0,-1.940248,2
 .293965,-0.137686\C,0,-3.195891,2.858399,-0.05036\C,0,-4.345648,2.0263
 87,0.029069\C,0,-4.252652,0.656247,0.021926\C,0,-2.979594,0.060141,-0.
 066534\H,0,-1.056456,2.919948,-0.198644\H,0,-5.320695,2.498329,0.09709
 3\H,0,-5.143573,0.040749,0.083346\N,0,-0.730484,0.106107,-0.221718\H,0
 ,-3.08886,-2.178143,-0.059501\B,0,-0.211464,-2.453956,-0.25753\C,0,0.6
 17461,0.623993,-0.31326\H,0,0.855154,1.231864,0.563868\H,0,1.317776,-0
 .205958,-0.363521\H,0,0.732662,1.236018,-1.211819\C,0,-3.374633,4.3535
 22,-0.037982\H,0,-3.8809,4.677152,0.876104\H,0,-2.415883,4.871849,-0.0
 96847\H,0,-3.989394,4.678483,-0.882486\H,0,0.979026,-2.378052,-0.33960
 9\H,0,-0.726068,-3.53173,-0.221999\\Version=AS64L-G16RevC.02\HF=-467.8
 496694\RMSD=2.896e-09\Dipole=0.2279954,0.9526257,-0.0158264\Quadrupole
 =2.9328143,1.289259,-4.2220733,-0.8192098,-0.612642,-0.4321907\PG=C01 
 [X(C10H12B1N1)]\\@
 The archive entry for this job was punched.


 FOR THE NATURE OF THE CHEMICAL BOND
 IS THE PROBLEM AT THE HEART OF ALL CHEMISTRY.

                     -- BRYCE CRAWFORD, JR., 1953
 Job cpu time:       0 days  0 hours 38 minutes 24.6 seconds.
 Elapsed time:       0 days  0 hours  0 minutes 23.9 seconds.
 File lengths (MBytes):  RWF=    129 Int=      0 D2E=      0 Chk=      9 Scr=      1
 Normal termination of Gaussian 16 at Wed Apr 10 15:49:27 2024.
