 Entering Gaussian System, Link 0=/ccc/products/gaussian-16-C.02/system/default/g16/g16
 Input=h_meimidazolecarboxylic_chelpg.gjf
 Output=h_meimidazolecarboxylic_chelpg.log
 Initial command:
 /ccc/products/gaussian-16-C.02/system/default/g16/l1.exe "/ccc/scratch/cont003/gen7343/penasfra/flp/b-n_flp/h_meimidazolecarboxylic/Reactant/Gau-287574.inp" -scrdir="/ccc/scratch/cont003/gen7343/penasfra/flp/b-n_flp/h_meimidazolecarboxylic/Reactant/"
 Entering Link 1 = /ccc/products/gaussian-16-C.02/system/default/g16/l1.exe PID=    287623.
  
 Copyright (c) 1988-2021, Gaussian, Inc.  All Rights Reserved.
  
 This is part of the Gaussian(R) 16 program.  It is based on
 the Gaussian(R) 09 system (copyright 2009, Gaussian, Inc.),
 the Gaussian(R) 03 system (copyright 2003, Gaussian, Inc.),
 the Gaussian(R) 98 system (copyright 1998, Gaussian, Inc.),
 the Gaussian(R) 94 system (copyright 1995, Gaussian, Inc.),
 the Gaussian 92(TM) system (copyright 1992, Gaussian, Inc.),
 the Gaussian 90(TM) system (copyright 1990, Gaussian, Inc.),
 the Gaussian 88(TM) system (copyright 1988, Gaussian, Inc.),
 the Gaussian 86(TM) system (copyright 1986, Carnegie Mellon
 University), and the Gaussian 82(TM) system (copyright 1983,
 Carnegie Mellon University). Gaussian is a federally registered
 trademark of Gaussian, Inc.
  
 This software contains proprietary and confidential information,
 including trade secrets, belonging to Gaussian, Inc.
  
 This software is provided under written license and may be
 used, copied, transmitted, or stored only in accord with that
 written license.
  
 The following legend is applicable only to US Government
 contracts under FAR:
  
                    RESTRICTED RIGHTS LEGEND
  
 Use, reproduction and disclosure by the US Government is
 subject to restrictions as set forth in subparagraphs (a)
 and (c) of the Commercial Computer Software - Restricted
 Rights clause in FAR 52.227-19.
  
 Gaussian, Inc.
 340 Quinnipiac St., Bldg. 40, Wallingford CT 06492
  
  
 ---------------------------------------------------------------
 Warning -- This program may not be used in any manner that
 competes with the business of Gaussian, Inc. or will provide
 assistance to any competitor of Gaussian, Inc.  The licensee
 of this program is prohibited from giving any competitor of
 Gaussian, Inc. access to this program.  By using this program,
 the user acknowledges that Gaussian, Inc. is engaged in the
 business of creating and licensing software in the field of
 computational chemistry and represents and warrants to the
 licensee that it is not a competitor of Gaussian, Inc. and that
 it will not use this program in any manner prohibited above.
 ---------------------------------------------------------------
  

 Cite this work as:
 Gaussian 16, Revision C.02,
 M. J. Frisch, G. W. Trucks, H. B. Schlegel, G. E. Scuseria, 
 M. A. Robb, J. R. Cheeseman, G. Scalmani, V. Barone, 
 G. A. Petersson, H. Nakatsuji, X. Li, M. Caricato, A. V. Marenich, 
 J. Bloino, B. G. Janesko, R. Gomperts, B. Mennucci, H. P. Hratchian, 
 J. V. Ortiz, A. F. Izmaylov, J. L. Sonnenberg, D. Williams-Young, 
 F. Ding, F. Lipparini, F. Egidi, J. Goings, B. Peng, A. Petrone, 
 T. Henderson, D. Ranasinghe, V. G. Zakrzewski, J. Gao, N. Rega, 
 G. Zheng, W. Liang, M. Hada, M. Ehara, K. Toyota, R. Fukuda, 
 J. Hasegawa, M. Ishida, T. Nakajima, Y. Honda, O. Kitao, H. Nakai, 
 T. Vreven, K. Throssell, J. A. Montgomery, Jr., J. E. Peralta, 
 F. Ogliaro, M. J. Bearpark, J. J. Heyd, E. N. Brothers, K. N. Kudin, 
 V. N. Staroverov, T. A. Keith, R. Kobayashi, J. Normand, 
 K. Raghavachari, A. P. Rendell, J. C. Burant, S. S. Iyengar, 
 J. Tomasi, M. Cossi, J. M. Millam, M. Klene, C. Adamo, R. Cammi, 
 J. W. Ochterski, R. L. Martin, K. Morokuma, O. Farkas, 
 J. B. Foresman, and D. J. Fox, Gaussian, Inc., Wallingford CT, 2019.
 
 ******************************************
 Gaussian 16:  AS64L-G16RevC.02  7-Dec-2021
                10-Apr-2024 
 ******************************************
 %nprocshared=128
 Will use up to  128 processors via shared memory.
 %mem=30GB
 %chk=h_meimidazolecarboxylic_chelpg.chk
 ----------------------------------------------------------------------
 # wb97xd/genecp scrf=(solvent=toluene,pcm) nosymm pop=(chelpg) scfcyc=
 300
 ----------------------------------------------------------------------
 1/38=1,172=1/1;
 2/12=2,15=1,17=6,18=5,40=1/2;
 3/5=7,11=2,16=1,17=8,25=1,30=1,70=2201,72=13,74=-58/1,2,3;
 4//1;
 5/5=2,7=300,38=5,53=13/2;
 6/7=2,8=2,9=2,10=2,15=8,20=3,28=1/1,2;
 99/5=1,9=1/99;
 ------------------------------
 h_meimidazolecarboxylic_chelpg
 ------------------------------
 Symbolic Z-matrix:
 Charge =  0 Multiplicity = 1
 C                     2.6594    1.5381    1.06913 
 H                     2.74338   2.17399   1.93679 
 C                     3.10251   0.24668   0.84745 
 N                     2.03373   1.95485  -0.06251 
 N                     2.73949  -0.12426  -0.4535 
 B                     3.85418  -0.62976   1.83451 
 C                     1.44144   3.25502  -0.32834 
 H                     0.46797   3.12609  -0.80156 
 H                     1.3086    3.77567   0.61802 
 H                     2.09283   3.84072  -0.97837 
 H                     4.10371  -0.19112   2.92033 
 H                     4.19261  -1.736     1.54057 
 C                     2.13127   0.90319  -0.93203 
 O                     1.54226   0.96256  -2.16536 
 C                     2.20158   1.63553  -3.14194 
 O                     3.20835   2.25246  -2.98623 
 H                     1.6478    1.52405  -4.07949 
 
                          Input orientation:                          
 ---------------------------------------------------------------------
 Center     Atomic      Atomic             Coordinates (Angstroms)
 Number     Number       Type             X           Y           Z
 ---------------------------------------------------------------------
      1          6           0        2.659396    1.538102    1.069127
      2          1           0        2.743376    2.173985    1.936793
      3          6           0        3.102507    0.246679    0.847449
      4          7           0        2.033725    1.954852   -0.062510
      5          7           0        2.739486   -0.124262   -0.453500
      6          5           0        3.854183   -0.629759    1.834513
      7          6           0        1.441443    3.255016   -0.328336
      8          1           0        0.467970    3.126088   -0.801561
      9          1           0        1.308604    3.775665    0.618019
     10          1           0        2.092834    3.840720   -0.978365
     11          1           0        4.103713   -0.191124    2.920333
     12          1           0        4.192610   -1.735995    1.540568
     13          6           0        2.131270    0.903193   -0.932031
     14          8           0        1.542260    0.962563   -2.165359
     15          6           0        2.201582    1.635526   -3.141936
     16          8           0        3.208347    2.252460   -2.986233
     17          1           0        1.647796    1.524046   -4.079485
 ---------------------------------------------------------------------
                    Distance matrix (angstroms):
                    1          2          3          4          5
     1  C    0.000000
     2  H    1.079001   0.000000
     3  C    1.383207   2.242800   0.000000
     4  N    1.358583   2.132800   2.210922   0.000000
     5  N    2.255718   3.315940   1.400660   2.230176   0.000000
     6  B    2.590937   3.017505   1.519031   3.686866   2.594818
     7  C    2.526679   2.827449   3.632037   1.453234   3.622168
     8  H    3.289912   3.685452   4.236864   2.090354   3.980667
     9  H    2.652325   2.522521   3.965409   2.074676   4.290106
    10  H    3.132932   3.420432   4.155739   2.097327   4.051509
    11  H    2.916031   2.900277   2.343274   4.217513   3.639826
    12  H    3.645917   4.188701   2.366376   4.566508   2.947127
    13  C    2.164869   3.196832   2.130930   1.368053   1.286306
    14  O    3.470034   4.442733   3.467546   2.376584   2.354782
    15  C    4.236996   5.135851   4.319231   3.100485   3.257895
    16  O    4.154227   4.945558   4.327988   3.164880   3.504765
    17  H    5.247069   6.149660   5.293631   4.058402   4.129948
                    6          7          8          9         10
     6  B    0.000000
     7  C    5.058726   0.000000
     8  H    5.702781   1.090052   0.000000
     9  H    5.231404   1.088260   1.773083   0.000000
    10  H    5.567748   1.090824   1.783856   1.779801   0.000000
    11  H    1.197360   5.432993   6.170496   5.371098   5.958124
    12  H    1.193606   5.997659   6.557314   6.288639   6.469454
    13  C    3.601685   2.524159   2.779362   3.366085   2.938144
    14  O    4.886661   2.939415   2.773965   3.964257   3.161625
    15  C    5.712062   3.334202   3.271779   4.417563   3.091237
    16  O    5.653661   3.345368   3.611881   4.349691   2.792575
    17  H    6.669512   4.136418   3.834490   5.220286   3.896406
                   11         12         13         14         15
    11  H    0.000000
    12  H    2.073229   0.000000
    13  C    4.464165   4.162713   0.000000
    14  O    5.810017   5.295325   1.368048   0.000000
    15  C    6.611041   6.103867   2.329149   1.356940   0.000000
    16  O    6.454479   6.112976   2.683349   2.261308   1.190977
    17  H    7.613855   6.977746   3.244329   1.997568   1.094580
                   16         17
    16  O    0.000000
    17  H    2.039879   0.000000
 Symmetry turned off by external request.
 Stoichiometry    C5H7BN2O2
 Framework group  C1[X(C5H7BN2O2)]
 Deg. of freedom    45
 Full point group                 C1      NOp   1
 Rotational constants (GHZ):           2.5610480           1.0448390           0.8540854
 General basis read from cards:  (5D, 7F)
 ======================================================================================================
                                       Pseudopotential Parameters
 ======================================================================================================
  Center     Atomic      Valence      Angular      Power
  Number     Number     Electrons     Momentum     of R      Exponent        Coefficient   SO-Coeffient
 ======================================================================================================
    1          6
                                   No pseudopotential on this center.
    2          1
                                   No pseudopotential on this center.
    3          6
                                   No pseudopotential on this center.
    4          7
                                   No pseudopotential on this center.
    5          7
                                   No pseudopotential on this center.
    6          5
                                   No pseudopotential on this center.
    7          6
                                   No pseudopotential on this center.
    8          1
                                   No pseudopotential on this center.
    9          1
                                   No pseudopotential on this center.
   10          1
                                   No pseudopotential on this center.
   11          1
                                   No pseudopotential on this center.
   12          1
                                   No pseudopotential on this center.
   13          6
                                   No pseudopotential on this center.
   14          8
                                   No pseudopotential on this center.
   15          6
                                   No pseudopotential on this center.
   16          8
                                   No pseudopotential on this center.
   17          1
                                   No pseudopotential on this center.
 ======================================================================================================
   269 basis functions,   423 primitive gaussians,   279 cartesian basis functions
    36 alpha electrons       36 beta electrons
       nuclear repulsion energy       507.9515282967 Hartrees.
 NAtoms=   17 NActive=   17 NUniq=   17 SFac= 1.00D+00 NAtFMM=   60 NAOKFM=F Big=F
 Integral buffers will be    131072 words long.
 Raffenetti 2 integral format.
 Two-electron integral symmetry is turned off.
 Nuclear repulsion after empirical dispersion term =      507.9428627011 Hartrees.
 ------------------------------------------------------------------------------
 Polarizable Continuum Model (PCM)
 =================================
 Model                : PCM.
 Atomic radii         : UFF (Universal Force Field).
 Polarization charges : Total charges.
 Charge compensation  : None.
 Solution method      : On-the-fly selection.
 Cavity type          : Scaled VdW (van der Waals Surface) (Alpha=1.100).
 Cavity algorithm     : GePol (No added spheres)
                        Default sphere list used, NSphG=   17.
                        Lebedev-Laikov grids with approx.  5.0 points / Ang**2.
                        Smoothing algorithm: York/Karplus (Gamma=1.0000).
                        Polarization charges: spherical gaussians, with
                                              point-specific exponents (IZeta= 3).
                        Self-potential: point-specific (ISelfS= 7).
                        Self-field    : sphere-specific E.n sum rule (ISelfD= 2).
 Solvent              : Toluene, Eps=   2.374100 Eps(inf)=   2.238315
 ------------------------------------------------------------------------------
 Spheres list:
 ISph  on   Nord     Re0    Alpha      Xe            Ye            Ze
    1   C      1    1.9255  1.100      2.659396      1.538102      1.069127
    2   H      2    1.4430  1.100      2.743376      2.173985      1.936793
    3   C      3    1.9255  1.100      3.102507      0.246679      0.847449
    4   N      4    1.8300  1.100      2.033725      1.954852     -0.062510
    5   N      5    1.8300  1.100      2.739486     -0.124262     -0.453500
    6   B      6    2.0415  1.100      3.854183     -0.629759      1.834513
    7   C      7    1.9255  1.100      1.441443      3.255016     -0.328336
    8   H      8    1.4430  1.100      0.467970      3.126088     -0.801561
    9   H      9    1.4430  1.100      1.308604      3.775665      0.618019
   10   H     10    1.4430  1.100      2.092834      3.840720     -0.978365
   11   H     11    1.4430  1.100      4.103713     -0.191124      2.920333
   12   H     12    1.4430  1.100      4.192610     -1.735995      1.540568
   13   C     13    1.9255  1.100      2.131270      0.903193     -0.932031
   14   O     14    1.7500  1.100      1.542260      0.962563     -2.165359
   15   C     15    1.9255  1.100      2.201582      1.635526     -3.141936
   16   O     16    1.7500  1.100      3.208347      2.252460     -2.986233
   17   H     17    1.4430  1.100      1.647796      1.524046     -4.079485
 ------------------------------------------------------------------------------
 One-electron integrals computed using PRISM.
   1 Symmetry operations used in ECPInt.
 ECPInt:  NShTT=    4560 NPrTT=   16311 LenC2=    4448 LenP2D=   11847.
 LDataN:  DoStor=T MaxTD1= 4 Len=   56
 NBasis=   269 RedAO= T EigKep=  1.11D-05  NBF=   269
 NBsUse=   269 1.00D-06 EigRej= -1.00D+00 NBFU=   269
 ExpMin= 3.15D-02 ExpMax= 8.59D+03 ExpMxC= 1.30D+03 IAcc=3 IRadAn=         5 AccDes= 0.00D+00
 Harris functional with IExCor= 4639 and IRadAn=       5 diagonalized for initial guess.
 HarFok:  IExCor= 4639 AccDes= 0.00D+00 IRadAn=         5 IDoV= 1 UseB2=F ITyADJ=14
 ICtDFT=  3500011 ScaDFX=  1.000000  1.000000  1.000000  1.000000
 FoFCou: FMM=F IPFlag=           0 FMFlag=      100000 FMFlg1=           0
         NFxFlg=           0 DoJE=T BraDBF=F KetDBF=T FulRan=T
         wScrn=  0.000000 ICntrl=       500 IOpCl=  0 I1Cent=   200000004 NGrid=           0
         NMat0=    1 NMatS0=      1 NMatT0=    0 NMatD0=    1 NMtDS0=    0 NMtDT0=    0
 Symmetry not used in FoFCou.
 Requested convergence on RMS density matrix=1.00D-08 within 300 cycles.
 Requested convergence on MAX density matrix=1.00D-06.
 Requested convergence on             energy=1.00D-06.
 No special actions if energy rises.
 Inv3:  Mode=1 IEnd=     7207500.
 Iteration    1 A*A^-1 deviation from unit magnitude is 4.44D-15 for   1533.
 Iteration    1 A*A^-1 deviation from orthogonality  is 2.75D-15 for   1532    234.
 Iteration    1 A^-1*A deviation from unit magnitude is 4.44D-15 for   1533.
 Iteration    1 A^-1*A deviation from orthogonality  is 2.30D-13 for   1033   1017.
 Error on total polarization charges =  0.00938
 SCF Done:  E(RwB97XD) =  -479.502488670     A.U. after   15 cycles
            NFock= 15  Conv=0.52D-08     -V/T= 2.0036

 **********************************************************************

            Population analysis using the SCF Density.

 **********************************************************************

 Alpha  occ. eigenvalues --  -19.33937 -19.27698 -14.52119 -14.43316 -10.44920
 Alpha  occ. eigenvalues --  -10.41480 -10.34509 -10.33984 -10.29469  -6.84210
 Alpha  occ. eigenvalues --   -1.26540  -1.18054  -1.14184  -1.01708  -0.88206
 Alpha  occ. eigenvalues --   -0.84342  -0.78625  -0.73082  -0.66460  -0.65559
 Alpha  occ. eigenvalues --   -0.63229  -0.59331  -0.58837  -0.58138  -0.56369
 Alpha  occ. eigenvalues --   -0.53687  -0.52530  -0.51477  -0.49733  -0.45210
 Alpha  occ. eigenvalues --   -0.43562  -0.41499  -0.40744  -0.37923  -0.37831
 Alpha  occ. eigenvalues --   -0.33093
 Alpha virt. eigenvalues --    0.00747   0.03721   0.04076   0.05085   0.06035
 Alpha virt. eigenvalues --    0.06589   0.07100   0.08179   0.08605   0.08902
 Alpha virt. eigenvalues --    0.09374   0.10359   0.11298   0.11592   0.11819
 Alpha virt. eigenvalues --    0.13429   0.14239   0.14413   0.14883   0.15479
 Alpha virt. eigenvalues --    0.16295   0.16661   0.17330   0.17592   0.17655
 Alpha virt. eigenvalues --    0.18003   0.19297   0.19703   0.19984   0.21252
 Alpha virt. eigenvalues --    0.21658   0.22994   0.23378   0.24252   0.24546
 Alpha virt. eigenvalues --    0.24978   0.25435   0.26674   0.26901   0.27428
 Alpha virt. eigenvalues --    0.28706   0.29801   0.29982   0.30771   0.32220
 Alpha virt. eigenvalues --    0.32963   0.33146   0.33983   0.34336   0.34670
 Alpha virt. eigenvalues --    0.35502   0.36260   0.37052   0.37327   0.37642
 Alpha virt. eigenvalues --    0.38461   0.39775   0.40531   0.41192   0.42110
 Alpha virt. eigenvalues --    0.43423   0.44681   0.46770   0.47413   0.51121
 Alpha virt. eigenvalues --    0.51901   0.52650   0.54300   0.54892   0.55806
 Alpha virt. eigenvalues --    0.57985   0.60150   0.61553   0.62796   0.65026
 Alpha virt. eigenvalues --    0.66464   0.67058   0.67572   0.67930   0.70752
 Alpha virt. eigenvalues --    0.71623   0.72315   0.73446   0.74348   0.74816
 Alpha virt. eigenvalues --    0.75718   0.78969   0.80575   0.81979   0.83539
 Alpha virt. eigenvalues --    0.86352   0.87601   0.89475   0.91355   0.91944
 Alpha virt. eigenvalues --    0.95510   0.97170   0.98858   0.99962   1.00548
 Alpha virt. eigenvalues --    1.01319   1.03597   1.06885   1.07438   1.11795
 Alpha virt. eigenvalues --    1.13069   1.14568   1.15543   1.17705   1.21284
 Alpha virt. eigenvalues --    1.21676   1.23850   1.25313   1.26449   1.27437
 Alpha virt. eigenvalues --    1.28937   1.30155   1.32083   1.34453   1.38540
 Alpha virt. eigenvalues --    1.44214   1.46079   1.47090   1.48236   1.50446
 Alpha virt. eigenvalues --    1.53730   1.55375   1.59370   1.61033   1.64154
 Alpha virt. eigenvalues --    1.65457   1.67173   1.67972   1.69587   1.71990
 Alpha virt. eigenvalues --    1.73078   1.75207   1.75869   1.78587   1.80320
 Alpha virt. eigenvalues --    1.81522   1.83557   1.88282   1.90253   1.91361
 Alpha virt. eigenvalues --    1.91807   1.93582   1.94900   1.97283   2.03548
 Alpha virt. eigenvalues --    2.09453   2.11441   2.11958   2.12990   2.18244
 Alpha virt. eigenvalues --    2.18730   2.21637   2.25316   2.25620   2.26622
 Alpha virt. eigenvalues --    2.32251   2.34348   2.47169   2.49192   2.50447
 Alpha virt. eigenvalues --    2.54346   2.55387   2.59116   2.62429   2.65015
 Alpha virt. eigenvalues --    2.66234   2.68723   2.69792   2.72642   2.73470
 Alpha virt. eigenvalues --    2.74895   2.75700   2.77777   2.82709   2.87708
 Alpha virt. eigenvalues --    2.89643   2.90880   2.93455   2.94581   2.97638
 Alpha virt. eigenvalues --    2.98127   3.00146   3.05821   3.07592   3.08208
 Alpha virt. eigenvalues --    3.13637   3.14960   3.19317   3.21766   3.23538
 Alpha virt. eigenvalues --    3.34803   3.36311   3.46729   3.49465   3.60115
 Alpha virt. eigenvalues --    3.63247   3.67535   3.72291   3.81329   3.84792
 Alpha virt. eigenvalues --    3.88596   3.90775   3.93751   4.03733   4.05955
 Alpha virt. eigenvalues --    4.09646   4.12885   4.17744   4.61231   4.83271
 Alpha virt. eigenvalues --    5.06748   5.11555   5.16550   5.23820   5.37373
 Alpha virt. eigenvalues --    5.45820   5.77559   5.98942  14.78279  23.92482
 Alpha virt. eigenvalues --   23.98232  23.99858  24.06720  24.22306  35.62683
 Alpha virt. eigenvalues --   35.83688  50.03416  50.09049
          Condensed to atoms (all electrons):
               1          2          3          4          5          6
     1  C    6.146563   0.399379  -0.341181   0.408701   0.138328  -0.003640
     2  H    0.399379   0.449052  -0.030547  -0.056855   0.002403  -0.026906
     3  C   -0.341181  -0.030547   6.446759  -0.278911   0.142103   0.281141
     4  N    0.408701  -0.056855  -0.278911   6.760634   0.012524   0.023640
     5  N    0.138328   0.002403   0.142103   0.012524   6.670648  -0.061590
     6  B   -0.003640  -0.026906   0.281141   0.023640  -0.061590   3.943513
     7  C   -0.181379  -0.020964   0.015022   0.200888   0.014717   0.010689
     8  H    0.005048   0.002028  -0.031110  -0.051168   0.000875  -0.000444
     9  H   -0.025456  -0.014535   0.035504  -0.046252  -0.000010   0.002711
    10  H   -0.011493  -0.000097   0.023278  -0.017660  -0.000061  -0.000516
    11  H    0.054928  -0.001166  -0.147323  -0.007762   0.004821   0.486663
    12  H   -0.053556  -0.004868  -0.002407   0.002389  -0.009772   0.479804
    13  C   -0.442996   0.032373   0.014824   0.151914   0.299290  -0.043109
    14  O   -0.008684   0.002691   0.015534  -0.134345  -0.092679  -0.003791
    15  C   -0.015850   0.000252  -0.040085  -0.029257  -0.009614  -0.003162
    16  O    0.025209  -0.000398   0.000618   0.018937   0.007299  -0.000554
    17  H    0.003860  -0.000055  -0.001851   0.001946   0.005844  -0.000369
               7          8          9         10         11         12
     1  C   -0.181379   0.005048  -0.025456  -0.011493   0.054928  -0.053556
     2  H   -0.020964   0.002028  -0.014535  -0.000097  -0.001166  -0.004868
     3  C    0.015022  -0.031110   0.035504   0.023278  -0.147323  -0.002407
     4  N    0.200888  -0.051168  -0.046252  -0.017660  -0.007762   0.002389
     5  N    0.014717   0.000875  -0.000010  -0.000061   0.004821  -0.009772
     6  B    0.010689  -0.000444   0.002711  -0.000516   0.486663   0.479804
     7  C    5.267067   0.421316   0.411472   0.388924  -0.001164   0.000846
     8  H    0.421316   0.513013  -0.022467  -0.056833  -0.000247  -0.000119
     9  H    0.411472  -0.022467   0.498304  -0.021948   0.000203   0.000150
    10  H    0.388924  -0.056833  -0.021948   0.496155   0.000080   0.000058
    11  H   -0.001164  -0.000247   0.000203   0.000080   0.628734  -0.001148
    12  H    0.000846  -0.000119   0.000150   0.000058  -0.001148   0.650058
    13  C   -0.102052  -0.010805   0.004997  -0.016978  -0.013996  -0.002226
    14  O    0.024005   0.016031  -0.003506  -0.016169   0.000443  -0.000044
    15  C    0.010086   0.001391   0.004072  -0.005601  -0.000287   0.000086
    16  O   -0.037493  -0.005381  -0.000153   0.015390   0.000083   0.000052
    17  H   -0.003133  -0.001262   0.000613   0.000992  -0.000001  -0.000013
              13         14         15         16         17
     1  C   -0.442996  -0.008684  -0.015850   0.025209   0.003860
     2  H    0.032373   0.002691   0.000252  -0.000398  -0.000055
     3  C    0.014824   0.015534  -0.040085   0.000618  -0.001851
     4  N    0.151914  -0.134345  -0.029257   0.018937   0.001946
     5  N    0.299290  -0.092679  -0.009614   0.007299   0.005844
     6  B   -0.043109  -0.003791  -0.003162  -0.000554  -0.000369
     7  C   -0.102052   0.024005   0.010086  -0.037493  -0.003133
     8  H   -0.010805   0.016031   0.001391  -0.005381  -0.001262
     9  H    0.004997  -0.003506   0.004072  -0.000153   0.000613
    10  H   -0.016978  -0.016169  -0.005601   0.015390   0.000992
    11  H   -0.013996   0.000443  -0.000287   0.000083  -0.000001
    12  H   -0.002226  -0.000044   0.000086   0.000052  -0.000013
    13  C    5.930226   0.234468  -0.054783   0.033023   0.002556
    14  O    0.234468   8.202746   0.100452  -0.165673  -0.128996
    15  C   -0.054783   0.100452   5.069087   0.480221   0.431445
    16  O    0.033023  -0.165673   0.480221   7.900107  -0.022809
    17  H    0.002556  -0.128996   0.431445  -0.022809   0.503506
 Mulliken charges:
               1
     1  C   -0.097780
     2  H    0.268211
     3  C   -0.101366
     4  N    0.040635
     5  N   -0.125125
     6  B   -0.084081
     7  C   -0.418847
     8  H    0.220133
     9  H    0.176303
    10  H    0.222480
    11  H   -0.002860
    12  H   -0.059288
    13  C   -0.016726
    14  O   -0.042485
    15  C    0.061547
    16  O   -0.248479
    17  H    0.207726
 Sum of Mulliken charges =  -0.00000
 Mulliken charges with hydrogens summed into heavy atoms:
               1
     1  C    0.170430
     3  C   -0.101366
     4  N    0.040635
     5  N   -0.125125
     6  B   -0.146228
     7  C    0.200069
    13  C   -0.016726
    14  O   -0.042485
    15  C    0.269273
    16  O   -0.248479
 Electronic spatial extent (au):  <R**2>=           3485.8613
 Charge=             -0.0000 electrons
 Dipole moment (field-independent basis, Debye):
    X=             -3.6714    Y=              4.9433    Z=             -0.1872  Tot=              6.1604
 Quadrupole moment (field-independent basis, Debye-Ang):
   XX=            -78.3944   YY=            -48.7525   ZZ=            -53.3106
   XY=              4.7654   XZ=              4.8286   YZ=              2.5852
 Traceless Quadrupole moment (field-independent basis, Debye-Ang):
   XX=            -18.2419   YY=             11.4000   ZZ=              6.8419
   XY=              4.7654   XZ=              4.8286   YZ=              2.5852
 Octapole moment (field-independent basis, Debye-Ang**2):
  XXX=           -526.2257  YYY=           -169.4999  ZZZ=             53.6594  XYY=           -148.8865
  XXY=            -73.4356  XXZ=             55.9443  XZZ=           -161.0635  YZZ=            -61.9612
  YYZ=             43.2655  XYZ=             23.9828
 Hexadecapole moment (field-independent basis, Debye-Ang**3):
 XXXX=          -2836.9014 YYYY=           -965.6095 ZZZZ=          -1013.5825 XXXY=           -460.9457
 XXXZ=            220.2511 YYYX=           -377.3511 YYYZ=            304.3924 ZZZX=             97.1079
 ZZZY=            259.3088 XXYY=           -663.7544 XXZZ=           -731.5099 YYZZ=           -386.3230
 XXYZ=            196.9961 YYXZ=            105.9350 ZZXY=           -164.7839
 N-N= 5.079428627011D+02 E-N=-2.135641179739D+03  KE= 4.777685849546D+02
 Breneman (CHELPG) radii used.
 Generate Potential Derived Charges using the Breneman model, NDens= 1.
 Grid spacing= 0.300 Box extension= 2.800
 NStep X,Y,Z=   33     39     43   Total possible points=       55341
 Number of Points to Fit=   12336

 **********************************************************************

            Electrostatic Properties Using The SCF Density.

 **********************************************************************

       Atomic Center    1 is at   2.659396  1.538102  1.069127
       Atomic Center    2 is at   2.743376  2.173985  1.936793
       Atomic Center    3 is at   3.102507  0.246679  0.847449
       Atomic Center    4 is at   2.033725  1.954852 -0.062510
       Atomic Center    5 is at   2.739486 -0.124262 -0.453500
       Atomic Center    6 is at   3.854183 -0.629759  1.834513
       Atomic Center    7 is at   1.441443  3.255016 -0.328336
       Atomic Center    8 is at   0.467970  3.126088 -0.801561
       Atomic Center    9 is at   1.308604  3.775665  0.618019
       Atomic Center   10 is at   2.092834  3.840720 -0.978365
       Atomic Center   11 is at   4.103713 -0.191124  2.920333
       Atomic Center   12 is at   4.192610 -1.735995  1.540568
       Atomic Center   13 is at   2.131270  0.903193 -0.932031
       Atomic Center   14 is at   1.542260  0.962563 -2.165359
       Atomic Center   15 is at   2.201582  1.635526 -3.141936
       Atomic Center   16 is at   3.208347  2.252460 -2.986233
       Atomic Center   17 is at   1.647796  1.524046 -4.079485
   12336 points will be used for fitting atomic charges
 Fitting point charges to electrostatic potential
 Charges from ESP fit, RMS=   0.00354 RRMS=   0.14302:
 ESP charges:
               1
     1  C   -0.367015
     2  H    0.225891
     3  C    0.106342
     4  N    0.070901
     5  N   -0.673269
     6  B    0.425426
     7  C   -0.197303
     8  H    0.081687
     9  H    0.135568
    10  H    0.121222
    11  H   -0.207614
    12  H   -0.168240
    13  C    0.761572
    14  O   -0.527467
    15  C    0.757849
    16  O   -0.566373
    17  H    0.020822
 Sum of ESP charges =  -0.00000
 ESP charges with hydrogens summed into heavy atoms:
               1
     1  C   -0.141124
     3  C    0.106342
     4  N    0.070901
     5  N   -0.673269
     6  B    0.049572
     7  C    0.141175
    13  C    0.761572
    14  O   -0.527467
    15  C    0.778671
    16  O   -0.566373
 Charge=  -0.00000 Dipole=    -3.6701     4.8276    -0.1287 Tot=     6.0657
 -----------------------------------------------------------------

              Electrostatic Properties (Atomic Units)

 -----------------------------------------------------------------
    Center     Electric         -------- Electric Field --------
               Potential          X             Y             Z
 -----------------------------------------------------------------
    1 Atom    -14.720734
    2 Atom     -1.050924
    3 Atom    -14.774383
    4 Atom    -18.299863
    5 Atom    -18.416367
    6 Atom    -11.480493
    7 Atom    -14.696984
    8 Atom     -1.061450
    9 Atom     -1.055321
   10 Atom     -1.069482
   11 Atom     -1.168329
   12 Atom     -1.177862
   13 Atom    -14.647082
   14 Atom    -22.276443
   15 Atom    -14.611578
   16 Atom    -22.348385
   17 Atom     -1.035476
 -----------------------------------------------------------------
 Unable to Open any file for archive entry.
 1\1\GINC-IRENE4088\SP\RwB97XD\GenECP\C5H7B1N2O2\PENASFRA\10-Apr-2024\0
 \\# wb97xd/genecp scrf=(solvent=toluene,pcm) nosymm pop=(chelpg) scfcy
 c=300\\h_meimidazolecarboxylic_chelpg\\0,1\C,0,2.659396,1.538102,1.069
 127\H,0,2.743376,2.173985,1.936793\C,0,3.102507,0.246679,0.847449\N,0,
 2.033725,1.954852,-0.06251\N,0,2.739486,-0.124262,-0.4535\B,0,3.854183
 ,-0.629759,1.834513\C,0,1.441443,3.255016,-0.328336\H,0,0.46797,3.1260
 88,-0.801561\H,0,1.308604,3.775665,0.618019\H,0,2.092834,3.84072,-0.97
 8365\H,0,4.103713,-0.191124,2.920333\H,0,4.19261,-1.735995,1.540568\C,
 0,2.13127,0.903193,-0.932031\O,0,1.54226,0.962563,-2.165359\C,0,2.2015
 82,1.635526,-3.141936\O,0,3.208347,2.25246,-2.986233\H,0,1.647796,1.52
 4046,-4.079485\\Version=AS64L-G16RevC.02\HF=-479.5024887\RMSD=5.218e-0
 9\Dipole=-1.4444378,1.9448259,-0.0736692\Quadrupole=-13.562411,8.47561
 4,5.086797,3.5429564,3.5899808,1.9220344\PG=C01 [X(C5H7B1N2O2)]\\@
 The archive entry for this job was punched.


 THE FIRST MORNING OF CREATION WROTE WHAT THE LAST DAWN OF
 RECKONING SHALL READ. -- OMAR KHAYYAM
 Job cpu time:       0 days  0 hours 24 minutes  3.7 seconds.
 Elapsed time:       0 days  0 hours  0 minutes 16.1 seconds.
 File lengths (MBytes):  RWF=     84 Int=      0 D2E=      0 Chk=      6 Scr=      1
 Normal termination of Gaussian 16 at Wed Apr 10 15:30:32 2024.
